h 0.1 0 6 tcp 40 ------- 0 0.0 5.0 0 0
+ 0.12 0 6 tcp 40 ------- 0 0.0 5.0 0 0
- 0.12 0 6 tcp 40 ------- 0 0.0 5.0 0 0
r 0.142564 6 5 tcp 40 ------- 0 0.0 5.0 0 0
h 0.142564 5 6 ack 40 ------- 0 5.0 0.0 0 1
+ 0.162564 5 6 ack 40 ------- 0 5.0 0.0 0 1
- 0.162564 5 6 ack 40 ------- 0 5.0 0.0 0 1
r 0.185128 6 0 ack 40 ------- 0 5.0 0.0 0 1
h 0.185128 0 6 tcp 1040 ------- 0 0.0 5.0 1 2
h 0.185128 0 6 tcp 1040 ------- 0 0.0 5.0 2 3
+ 0.205128 0 6 tcp 1040 ------- 0 0.0 5.0 1 2
- 0.205128 0 6 tcp 1040 ------- 0 0.0 5.0 1 2
+ 0.205128 0 6 tcp 1040 ------- 0 0.0 5.0 2 3
- 0.247768 0 6 tcp 1040 ------- 0 0.0 5.0 2 3
r 0.267292 6 5 tcp 1040 ------- 0 0.0 5.0 1 2
h 0.267292 5 6 ack 40 ------- 0 5.0 0.0 1 4
+ 0.287292 5 6 ack 40 ------- 0 5.0 0.0 1 4
- 0.287292 5 6 ack 40 ------- 0 5.0 0.0 1 4
r 0.309932 6 5 tcp 1040 ------- 0 0.0 5.0 2 3
h 0.309932 5 6 ack 40 ------- 0 5.0 0.0 2 5
r 0.312976 6 0 ack 40 ------- 0 5.0 0.0 1 4
h 0.312976 0 6 tcp 1040 ------- 0 0.0 5.0 3 6
h 0.312976 0 6 tcp 1040 ------- 0 0.0 5.0 4 7
+ 0.329932 5 6 ack 40 ------- 0 5.0 0.0 2 5
- 0.329932 5 6 ack 40 ------- 0 5.0 0.0 2 5
+ 0.332976 0 6 tcp 1040 ------- 0 0.0 5.0 3 6
- 0.332976 0 6 tcp 1040 ------- 0 0.0 5.0 3 6
+ 0.332976 0 6 tcp 1040 ------- 0 0.0 5.0 4 7
r 0.352496 6 0 ack 40 ------- 0 5.0 0.0 2 5
h 0.352496 0 6 tcp 1040 ------- 0 0.0 5.0 5 8
h 0.352496 0 6 tcp 1040 ------- 0 0.0 5.0 6 9
+ 0.372496 0 6 tcp 1040 ------- 0 0.0 5.0 5 8
+ 0.372496 0 6 tcp 1040 ------- 0 0.0 5.0 6 9
- 0.375616 0 6 tcp 1040 ------- 0 0.0 5.0 4 7
r 0.39514 6 5 tcp 1040 ------- 0 0.0 5.0 3 6
h 0.39514 5 6 ack 40 ------- 0 5.0 0.0 3 10
h 0.4 1 6 tcp 40 ------- 0 1.0 5.1 0 11
+ 0.41514 5 6 ack 40 ------- 0 5.0 0.0 3 10
- 0.41514 5 6 ack 40 ------- 0 5.0 0.0 3 10
- 0.418256 0 6 tcp 1040 ------- 0 0.0 5.0 5 8
+ 0.42 1 6 tcp 40 ------- 0 1.0 5.1 0 11
- 0.42 1 6 tcp 40 ------- 0 1.0 5.1 0 11
r 0.43778 6 5 tcp 1040 ------- 0 0.0 5.0 4 7
h 0.43778 5 6 ack 40 ------- 0 5.0 0.0 4 12
+ 0.45778 5 6 ack 40 ------- 0 5.0 0.0 4 12
- 0.461544 0 6 tcp 1040 ------- 0 0.0 5.0 6 9
r 0.481068 6 5 tcp 1040 ------- 0 0.0 5.0 5 8
h 0.481068 5 6 ack 40 ------- 0 5.0 0.0 5 13
+ 0.501068 5 6 ack 40 ------- 0 5.0 0.0 5 13
- 0.51172 5 6 ack 40 ------- 0 5.0 0.0 4 12
- 0.51476 5 6 ack 40 ------- 0 5.0 0.0 5 13
r 0.527556 6 5 tcp 1040 ------- 0 0.0 5.0 6 9
h 0.527556 5 6 ack 40 ------- 0 5.0 0.0 6 14
r 0.531244 6 0 ack 40 ------- 0 5.0 0.0 3 10
h 0.531244 0 6 tcp 1040 ------- 0 0.0 5.0 7 15
h 0.531244 0 6 tcp 1040 ------- 0 0.0 5.0 8 16
r 0.534284 6 0 ack 40 ------- 0 5.0 0.0 4 12
h 0.534284 0 6 tcp 1040 ------- 0 0.0 5.0 9 17
h 0.534284 0 6 tcp 1040 ------- 0 0.0 5.0 10 18
r 0.537324 6 0 ack 40 ------- 0 5.0 0.0 5 13
h 0.537324 0 6 tcp 1040 ------- 0 0.0 5.0 11 19
h 0.537324 0 6 tcp 1040 ------- 0 0.0 5.0 12 20
+ 0.547556 5 6 ack 40 ------- 0 5.0 0.0 6 14
- 0.547556 5 6 ack 40 ------- 0 5.0 0.0 6 14
r 0.549164 6 5 tcp 40 ------- 0 1.0 5.1 0 11
h 0.549164 5 6 ack 40 ------- 0 5.1 1.0 0 21
+ 0.551244 0 6 tcp 1040 ------- 0 0.0 5.0 7 15
- 0.551244 0 6 tcp 1040 ------- 0 0.0 5.0 7 15
+ 0.551244 0 6 tcp 1040 ------- 0 0.0 5.0 8 16
+ 0.554284 0 6 tcp 1040 ------- 0 0.0 5.0 9 17
+ 0.554284 0 6 tcp 1040 ------- 0 0.0 5.0 10 18
+ 0.557324 0 6 tcp 1040 ------- 0 0.0 5.0 11 19
+ 0.557324 0 6 tcp 1040 ------- 0 0.0 5.0 12 20
+ 0.569164 5 6 ack 40 ------- 0 5.1 1.0 0 21
- 0.569164 5 6 ack 40 ------- 0 5.1 1.0 0 21
r 0.57012 6 0 ack 40 ------- 0 5.0 0.0 6 14
h 0.57012 0 6 tcp 1040 ------- 0 0.0 5.0 13 22
h 0.57012 0 6 tcp 1040 ------- 0 0.0 5.0 14 23
+ 0.59012 0 6 tcp 1040 ------- 0 0.0 5.0 13 22
+ 0.59012 0 6 tcp 1040 ------- 0 0.0 5.0 14 23
- 0.593884 0 6 tcp 1040 ------- 0 0.0 5.0 8 16
r 0.613408 6 5 tcp 1040 ------- 0 0.0 5.0 7 15
h 0.613408 5 6 ack 40 ------- 0 5.0 0.0 7 24
r 0.617092 6 1 ack 40 ------- 0 5.1 1.0 0 21
h 0.617092 1 6 tcp 1040 ------- 0 1.0 5.1 1 25
h 0.617092 1 6 tcp 1040 ------- 0 1.0 5.1 2 26
+ 0.633408 5 6 ack 40 ------- 0 5.0 0.0 7 24
- 0.633408 5 6 ack 40 ------- 0 5.0 0.0 7 24
+ 0.637092 1 6 tcp 1040 ------- 0 1.0 5.1 1 25
- 0.637092 1 6 tcp 1040 ------- 0 1.0 5.1 1 25
+ 0.637092 1 6 tcp 1040 ------- 0 1.0 5.1 2 26
- 0.640212 0 6 tcp 1040 ------- 0 0.0 5.0 9 17
r 0.659736 6 5 tcp 1040 ------- 0 0.0 5.0 8 16
h 0.659736 5 6 ack 40 ------- 0 5.0 0.0 8 27
r 0.66342 6 0 ack 40 ------- 0 5.0 0.0 7 24
h 0.66342 0 6 tcp 1040 ------- 0 0.0 5.0 15 28
h 0.66342 0 6 tcp 1040 ------- 0 0.0 5.0 16 29
+ 0.679736 5 6 ack 40 ------- 0 5.0 0.0 8 27
- 0.679736 5 6 ack 40 ------- 0 5.0 0.0 8 27
+ 0.68342 0 6 tcp 1040 ------- 0 0.0 5.0 15 28
+ 0.68342 0 6 tcp 1040 ------- 0 0.0 5.0 16 29
- 0.687184 0 6 tcp 1040 ------- 0 0.0 5.0 10 18
r 0.706708 6 5 tcp 1040 ------- 0 0.0 5.0 9 17
h 0.706708 5 6 ack 40 ------- 0 5.0 0.0 9 30
r 0.710392 6 0 ack 40 ------- 0 5.0 0.0 8 27
h 0.710392 0 6 tcp 1040 ------- 0 0.0 5.0 17 31
h 0.710392 0 6 tcp 1040 ------- 0 0.0 5.0 18 32
+ 0.726708 5 6 ack 40 ------- 0 5.0 0.0 9 30
- 0.726708 5 6 ack 40 ------- 0 5.0 0.0 9 30
+ 0.730392 0 6 tcp 1040 ------- 0 0.0 5.0 17 31
+ 0.730392 0 6 tcp 1040 ------- 0 0.0 5.0 18 32
- 0.739276 0 6 tcp 1040 ------- 0 0.0 5.0 11 19
r 0.7588 6 5 tcp 1040 ------- 0 0.0 5.0 10 18
h 0.7588 5 6 ack 40 ------- 0 5.0 0.0 10 33
+ 0.7788 5 6 ack 40 ------- 0 5.0 0.0 10 33
- 0.785764 0 6 tcp 1040 ------- 0 0.0 5.0 12 20
r 0.805288 6 5 tcp 1040 ------- 0 0.0 5.0 11 19
h 0.805288 5 6 ack 40 ------- 0 5.0 0.0 11 34
+ 0.825288 5 6 ack 40 ------- 0 5.0 0.0 11 34
- 0.831612 0 6 tcp 1040 ------- 0 0.0 5.0 13 22
r 0.851136 6 5 tcp 1040 ------- 0 0.0 5.0 12 20
h 0.851136 5 6 ack 40 ------- 0 5.0 0.0 12 35
+ 0.871136 5 6 ack 40 ------- 0 5.0 0.0 12 35
- 0.87746 0 6 tcp 1040 ------- 0 0.0 5.0 14 23
r 0.896984 6 5 tcp 1040 ------- 0 0.0 5.0 13 22
h 0.896984 5 6 ack 40 ------- 0 5.0 0.0 13 36
+ 0.916984 5 6 ack 40 ------- 0 5.0 0.0 13 36
- 0.923308 0 6 tcp 1040 ------- 0 0.0 5.0 15 28
r 0.942832 6 5 tcp 1040 ------- 0 0.0 5.0 14 23
h 0.942832 5 6 ack 40 ------- 0 5.0 0.0 14 37
+ 0.962832 5 6 ack 40 ------- 0 5.0 0.0 14 37
- 0.965948 0 6 tcp 1040 ------- 0 0.0 5.0 16 29
r 0.985472 6 5 tcp 1040 ------- 0 0.0 5.0 15 28
h 0.985472 5 6 ack 40 ------- 0 5.0 0.0 15 38
+ 1.005472 5 6 ack 40 ------- 0 5.0 0.0 15 38
- 1.011796 0 6 tcp 1040 ------- 0 0.0 5.0 17 31
r 1.03132 6 5 tcp 1040 ------- 0 0.0 5.0 16 29
h 1.03132 5 6 ack 40 ------- 0 5.0 0.0 16 39
h 1.050392 0 6 tcp 1040 ---A--- 0 0.0 5.0 9 40
+ 1.05132 5 6 ack 40 ------- 0 5.0 0.0 16 39
- 1.055084 0 6 tcp 1040 ------- 0 0.0 5.0 18 32
+ 1.070392 0 6 tcp 1040 ---A--- 0 0.0 5.0 9 40
r 1.074608 6 5 tcp 1040 ------- 0 0.0 5.0 17 31
h 1.074608 5 6 ack 40 ------- 0 5.0 0.0 17 41
+ 1.094608 5 6 ack 40 ------- 0 5.0 0.0 17 41
- 1.097724 0 6 tcp 1040 ---A--- 0 0.0 5.0 9 40
r 1.117248 6 5 tcp 1040 ------- 0 0.0 5.0 18 32
h 1.117248 5 6 ack 40 ------- 0 5.0 0.0 18 42
+ 1.137248 5 6 ack 40 ------- 0 5.0 0.0 18 42
r 1.159888 6 5 tcp 1040 ---A--- 0 0.0 5.0 9 40
h 1.159888 5 6 ack 40 ------- 0 5.0 0.0 18 43
+ 1.179888 5 6 ack 40 ------- 0 5.0 0.0 18 43
- 1.18188 5 6 ack 40 ------- 0 5.0 0.0 10 33
- 1.18492 5 6 ack 40 ------- 0 5.0 0.0 11 34
- 1.18796 5 6 ack 40 ------- 0 5.0 0.0 12 35
- 1.191 5 6 ack 40 ------- 0 5.0 0.0 13 36
- 1.19404 5 6 ack 40 ------- 0 5.0 0.0 14 37
- 1.19708 5 6 ack 40 ------- 0 5.0 0.0 15 38
- 1.20012 5 6 ack 40 ------- 0 5.0 0.0 16 39
r 1.201404 6 0 ack 40 ------- 0 5.0 0.0 9 30
h 1.201404 0 6 tcp 1040 ------- 0 0.0 5.0 10 44
h 1.201404 0 6 tcp 1040 ------- 0 0.0 5.0 11 45
- 1.20316 5 6 ack 40 ------- 0 5.0 0.0 17 41
r 1.204444 6 0 ack 40 ------- 0 5.0 0.0 10 33
h 1.204444 0 6 tcp 1040 ------- 0 0.0 5.0 12 46
h 1.204444 0 6 tcp 1040 ------- 0 0.0 5.0 13 47
- 1.2062 5 6 ack 40 ------- 0 5.0 0.0 18 42
r 1.207484 6 0 ack 40 ------- 0 5.0 0.0 11 34
h 1.207484 0 6 tcp 1040 ------- 0 0.0 5.0 14 48
h 1.207484 0 6 tcp 1040 ------- 0 0.0 5.0 15 49
- 1.20924 5 6 ack 40 ------- 0 5.0 0.0 18 43
r 1.210524 6 0 ack 40 ------- 0 5.0 0.0 12 35
h 1.210524 0 6 tcp 1040 ------- 0 0.0 5.0 16 50
h 1.210524 0 6 tcp 1040 ------- 0 0.0 5.0 17 51
r 1.213564 6 0 ack 40 ------- 0 5.0 0.0 13 36
h 1.213564 0 6 tcp 1040 ------- 0 0.0 5.0 18 52
r 1.216604 6 0 ack 40 ------- 0 5.0 0.0 14 37
h 1.216604 0 6 tcp 1040 ------- 0 0.0 5.0 19 53
r 1.219644 6 0 ack 40 ------- 0 5.0 0.0 15 38
h 1.219644 0 6 tcp 1040 ------- 0 0.0 5.0 20 54
+ 1.221404 0 6 tcp 1040 ------- 0 0.0 5.0 10 44
- 1.221404 0 6 tcp 1040 ------- 0 0.0 5.0 10 44
+ 1.221404 0 6 tcp 1040 ------- 0 0.0 5.0 11 45
r 1.222684 6 0 ack 40 ------- 0 5.0 0.0 16 39
h 1.222684 0 6 tcp 1040 ------- 0 0.0 5.0 21 55
+ 1.224444 0 6 tcp 1040 ------- 0 0.0 5.0 12 46
+ 1.224444 0 6 tcp 1040 ------- 0 0.0 5.0 13 47
r 1.225724 6 0 ack 40 ------- 0 5.0 0.0 17 41
h 1.225724 0 6 tcp 1040 ------- 0 0.0 5.0 22 56
+ 1.227484 0 6 tcp 1040 ------- 0 0.0 5.0 14 48
+ 1.227484 0 6 tcp 1040 ------- 0 0.0 5.0 15 49
r 1.228764 6 0 ack 40 ------- 0 5.0 0.0 18 42
h 1.228764 0 6 tcp 1040 ------- 0 0.0 5.0 23 57
h 1.228764 0 6 tcp 1040 ------- 0 0.0 5.0 24 58
+ 1.230524 0 6 tcp 1040 ------- 0 0.0 5.0 16 50
+ 1.230524 0 6 tcp 1040 ------- 0 0.0 5.0 17 51
r 1.231804 6 0 ack 40 ------- 0 5.0 0.0 18 43
h 1.231804 0 6 tcp 1040 ------- 0 0.0 5.0 25 59
+ 1.233564 0 6 tcp 1040 ------- 0 0.0 5.0 18 52
+ 1.236604 0 6 tcp 1040 ------- 0 0.0 5.0 19 53
+ 1.239644 0 6 tcp 1040 ------- 0 0.0 5.0 20 54
+ 1.242684 0 6 tcp 1040 ------- 0 0.0 5.0 21 55
+ 1.245724 0 6 tcp 1040 ------- 0 0.0 5.0 22 56
h 1.247092 1 6 tcp 1040 ---A--- 0 1.0 5.1 1 60
+ 1.248764 0 6 tcp 1040 ------- 0 0.0 5.0 23 57
+ 1.248764 0 6 tcp 1040 ------- 0 0.0 5.0 24 58
+ 1.251804 0 6 tcp 1040 ------- 0 0.0 5.0 25 59
- 1.264044 0 6 tcp 1040 ------- 0 0.0 5.0 11 45
+ 1.267092 1 6 tcp 1040 ---A--- 0 1.0 5.1 1 60
r 1.283568 6 5 tcp 1040 ------- 0 0.0 5.0 10 44
h 1.283568 5 6 ack 40 ------- 0 5.0 0.0 18 61
+ 1.303568 5 6 ack 40 ------- 0 5.0 0.0 18 61
- 1.303568 5 6 ack 40 ------- 0 5.0 0.0 18 61
- 1.306684 0 6 tcp 1040 ------- 0 0.0 5.0 12 46
r 1.326208 6 5 tcp 1040 ------- 0 0.0 5.0 11 45
h 1.326208 5 6 ack 40 ------- 0 5.0 0.0 18 62
r 1.3331 6 0 ack 40 ------- 0 5.0 0.0 18 61
h 1.3331 0 6 tcp 1040 ------- 0 0.0 5.0 26 63
+ 1.346208 5 6 ack 40 ------- 0 5.0 0.0 18 62
- 1.346208 5 6 ack 40 ------- 0 5.0 0.0 18 62
+ 1.3531 0 6 tcp 1040 ------- 0 0.0 5.0 26 63
- 1.35622 0 6 tcp 1040 ------- 0 0.0 5.0 13 47
r 1.375744 6 5 tcp 1040 ------- 0 0.0 5.0 12 46
h 1.375744 5 6 ack 40 ------- 0 5.0 0.0 18 64
+ 1.395744 5 6 ack 40 ------- 0 5.0 0.0 18 64
- 1.408476 0 6 tcp 1040 ------- 0 0.0 5.0 14 48
r 1.428 6 5 tcp 1040 ------- 0 0.0 5.0 13 47
h 1.428 5 6 ack 40 ------- 0 5.0 0.0 18 65
+ 1.448 5 6 ack 40 ------- 0 5.0 0.0 18 65
- 1.454324 0 6 tcp 1040 ------- 0 0.0 5.0 15 49
r 1.473848 6 5 tcp 1040 ------- 0 0.0 5.0 14 48
h 1.473848 5 6 ack 40 ------- 0 5.0 0.0 18 66
+ 1.493848 5 6 ack 40 ------- 0 5.0 0.0 18 66
- 1.500172 0 6 tcp 1040 ------- 0 0.0 5.0 16 50
r 1.519696 6 5 tcp 1040 ------- 0 0.0 5.0 15 49
h 1.519696 5 6 ack 40 ------- 0 5.0 0.0 18 67
+ 1.539696 5 6 ack 40 ------- 0 5.0 0.0 18 67
- 1.542812 0 6 tcp 1040 ------- 0 0.0 5.0 17 51
r 1.562336 6 5 tcp 1040 ------- 0 0.0 5.0 16 50
h 1.562336 5 6 ack 40 ------- 0 5.0 0.0 18 68
+ 1.582336 5 6 ack 40 ------- 0 5.0 0.0 18 68
- 1.5861 0 6 tcp 1040 ------- 0 0.0 5.0 18 52
r 1.605624 6 5 tcp 1040 ------- 0 0.0 5.0 17 51
h 1.605624 5 6 ack 40 ------- 0 5.0 0.0 18 69
+ 1.625624 5 6 ack 40 ------- 0 5.0 0.0 18 69
- 1.62874 0 6 tcp 1040 ------- 0 0.0 5.0 19 53
r 1.648264 6 5 tcp 1040 ------- 0 0.0 5.0 18 52
h 1.648264 5 6 ack 40 ------- 0 5.0 0.0 18 70
+ 1.668264 5 6 ack 40 ------- 0 5.0 0.0 18 70
- 1.672028 0 6 tcp 1040 ------- 0 0.0 5.0 20 54
r 1.691552 6 5 tcp 1040 ------- 0 0.0 5.0 19 53
h 1.691552 5 6 ack 40 ------- 0 5.0 0.0 19 71
+ 1.711552 5 6 ack 40 ------- 0 5.0 0.0 19 71
- 1.714668 0 6 tcp 1040 ------- 0 0.0 5.0 21 55
r 1.734192 6 5 tcp 1040 ------- 0 0.0 5.0 20 54
h 1.734192 5 6 ack 40 ------- 0 5.0 0.0 20 72
+ 1.754192 5 6 ack 40 ------- 0 5.0 0.0 20 72
- 1.757308 0 6 tcp 1040 ------- 0 0.0 5.0 22 56
r 1.776832 6 5 tcp 1040 ------- 0 0.0 5.0 21 55
h 1.776832 5 6 ack 40 ------- 0 5.0 0.0 21 73
+ 1.796832 5 6 ack 40 ------- 0 5.0 0.0 21 73
- 1.799948 0 6 tcp 1040 ------- 0 0.0 5.0 23 57
r 1.819472 6 5 tcp 1040 ------- 0 0.0 5.0 22 56
h 1.819472 5 6 ack 40 ------- 0 5.0 0.0 22 74
+ 1.839472 5 6 ack 40 ------- 0 5.0 0.0 22 74
- 1.842588 0 6 tcp 1040 ------- 0 0.0 5.0 24 58
r 1.862112 6 5 tcp 1040 ------- 0 0.0 5.0 23 57
h 1.862112 5 6 ack 40 ------- 0 5.0 0.0 23 75
+ 1.882112 5 6 ack 40 ------- 0 5.0 0.0 23 75
- 1.885228 0 6 tcp 1040 ------- 0 0.0 5.0 25 59
r 1.904752 6 5 tcp 1040 ------- 0 0.0 5.0 24 58
h 1.904752 5 6 ack 40 ------- 0 5.0 0.0 24 76
h 1.908764 0 6 tcp 1040 ---A--- 0 0.0 5.0 19 77
+ 1.924752 5 6 ack 40 ------- 0 5.0 0.0 24 76
+ 1.928764 0 6 tcp 1040 ---A--- 0 0.0 5.0 19 77
- 1.931076 0 6 tcp 1040 ------- 0 0.0 5.0 26 63
r 1.9506 6 5 tcp 1040 ------- 0 0.0 5.0 25 59
h 1.9506 5 6 ack 40 ------- 0 5.0 0.0 25 78
+ 1.9706 5 6 ack 40 ------- 0 5.0 0.0 25 78
- 1.973716 0 6 tcp 1040 ---A--- 0 0.0 5.0 19 77
r 1.99324 6 5 tcp 1040 ------- 0 0.0 5.0 26 63
h 1.99324 5 6 ack 40 ------- 0 5.0 0.0 26 79
+ 2.01324 5 6 ack 40 ------- 0 5.0 0.0 26 79
r 2.03588 6 5 tcp 1040 ---A--- 0 0.0 5.0 19 77
h 2.03588 5 6 ack 40 ------- 0 5.0 0.0 26 80
+ 2.05588 5 6 ack 40 ------- 0 5.0 0.0 26 80
- 2.362512 5 6 ack 40 ------- 0 5.0 0.0 18 64
- 2.365552 5 6 ack 40 ------- 0 5.0 0.0 18 65
- 2.368592 5 6 ack 40 ------- 0 5.0 0.0 18 66
- 2.371632 5 6 ack 40 ------- 0 5.0 0.0 18 67
- 2.374672 5 6 ack 40 ------- 0 5.0 0.0 18 68
- 2.377712 5 6 ack 40 ------- 0 5.0 0.0 18 69
- 2.380752 5 6 ack 40 ------- 0 5.0 0.0 18 70
r 2.382036 6 0 ack 40 ------- 0 5.0 0.0 18 62
- 2.383792 5 6 ack 40 ------- 0 5.0 0.0 19 71
r 2.385076 6 0 ack 40 ------- 0 5.0 0.0 18 64
- 2.386832 5 6 ack 40 ------- 0 5.0 0.0 20 72
r 2.388116 6 0 ack 40 ------- 0 5.0 0.0 18 65
- 2.389872 5 6 ack 40 ------- 0 5.0 0.0 21 73
r 2.391156 6 0 ack 40 ------- 0 5.0 0.0 18 66
- 2.392912 5 6 ack 40 ------- 0 5.0 0.0 22 74
r 2.394196 6 0 ack 40 ------- 0 5.0 0.0 18 67
- 2.395952 5 6 ack 40 ------- 0 5.0 0.0 23 75
r 2.397236 6 0 ack 40 ------- 0 5.0 0.0 18 68
- 2.398992 5 6 ack 40 ------- 0 5.0 0.0 24 76
r 2.400276 6 0 ack 40 ------- 0 5.0 0.0 18 69
- 2.402032 5 6 ack 40 ------- 0 5.0 0.0 25 78
r 2.403316 6 0 ack 40 ------- 0 5.0 0.0 18 70
- 2.405072 5 6 ack 40 ------- 0 5.0 0.0 26 79
r 2.406356 6 0 ack 40 ------- 0 5.0 0.0 19 71
h 2.406356 0 6 tcp 1040 ------- 0 0.0 5.0 20 81
h 2.406356 0 6 tcp 1040 ------- 0 0.0 5.0 21 82
- 2.408112 5 6 ack 40 ------- 0 5.0 0.0 26 80
r 2.409396 6 0 ack 40 ------- 0 5.0 0.0 20 72
h 2.409396 0 6 tcp 1040 ------- 0 0.0 5.0 22 83
h 2.409396 0 6 tcp 1040 ------- 0 0.0 5.0 23 84
r 2.412436 6 0 ack 40 ------- 0 5.0 0.0 21 73
h 2.412436 0 6 tcp 1040 ------- 0 0.0 5.0 24 85
r 2.415476 6 0 ack 40 ------- 0 5.0 0.0 22 74
h 2.415476 0 6 tcp 1040 ------- 0 0.0 5.0 25 86
r 2.418516 6 0 ack 40 ------- 0 5.0 0.0 23 75
h 2.418516 0 6 tcp 1040 ------- 0 0.0 5.0 26 87
r 2.421556 6 0 ack 40 ------- 0 5.0 0.0 24 76
h 2.421556 0 6 tcp 1040 ------- 0 0.0 5.0 27 88
h 2.421556 0 6 tcp 1040 ------- 0 0.0 5.0 28 89
r 2.424596 6 0 ack 40 ------- 0 5.0 0.0 25 78
h 2.424596 0 6 tcp 1040 ------- 0 0.0 5.0 29 90
+ 2.426356 0 6 tcp 1040 ------- 0 0.0 5.0 20 81
- 2.426356 0 6 tcp 1040 ------- 0 0.0 5.0 20 81
+ 2.426356 0 6 tcp 1040 ------- 0 0.0 5.0 21 82
r 2.427636 6 0 ack 40 ------- 0 5.0 0.0 26 79
h 2.427636 0 6 tcp 1040 ------- 0 0.0 5.0 30 91
+ 2.429396 0 6 tcp 1040 ------- 0 0.0 5.0 22 83
+ 2.429396 0 6 tcp 1040 ------- 0 0.0 5.0 23 84
r 2.430676 6 0 ack 40 ------- 0 5.0 0.0 26 80
h 2.430676 0 6 tcp 1040 ------- 0 0.0 5.0 31 92
+ 2.432436 0 6 tcp 1040 ------- 0 0.0 5.0 24 85
+ 2.435476 0 6 tcp 1040 ------- 0 0.0 5.0 25 86
+ 2.438516 0 6 tcp 1040 ------- 0 0.0 5.0 26 87
+ 2.441556 0 6 tcp 1040 ------- 0 0.0 5.0 27 88
+ 2.441556 0 6 tcp 1040 ------- 0 0.0 5.0 28 89
+ 2.444596 0 6 tcp 1040 ------- 0 0.0 5.0 29 90
+ 2.447636 0 6 tcp 1040 ------- 0 0.0 5.0 30 91
+ 2.450676 0 6 tcp 1040 ------- 0 0.0 5.0 31 92
- 2.468996 0 6 tcp 1040 ------- 0 0.0 5.0 21 82
r 2.48852 6 5 tcp 1040 ------- 0 0.0 5.0 20 81
h 2.48852 5 6 ack 40 ------- 0 5.0 0.0 26 93
h 2.507092 1 6 tcp 1040 ---A--- 0 1.0 5.1 1 94
+ 2.50852 5 6 ack 40 ------- 0 5.0 0.0 26 93
- 2.50852 5 6 ack 40 ------- 0 5.0 0.0 26 93
- 2.511636 0 6 tcp 1040 ------- 0 0.0 5.0 22 83
+ 2.527092 1 6 tcp 1040 ---A--- 0 1.0 5.1 1 94
r 2.53116 6 5 tcp 1040 ------- 0 0.0 5.0 21 82
h 2.53116 5 6 ack 40 ------- 0 5.0 0.0 26 95
+ 2.55116 5 6 ack 40 ------- 0 5.0 0.0 26 95
- 2.560684 0 6 tcp 1040 ------- 0 0.0 5.0 23 84
r 2.580208 6 5 tcp 1040 ------- 0 0.0 5.0 22 83
h 2.580208 5 6 ack 40 ------- 0 5.0 0.0 26 96
+ 2.600208 5 6 ack 40 ------- 0 5.0 0.0 26 96
- 2.603972 0 6 tcp 1040 ------- 0 0.0 5.0 24 85
r 2.623496 6 5 tcp 1040 ------- 0 0.0 5.0 23 84
h 2.623496 5 6 ack 40 ------- 0 5.0 0.0 26 97
+ 2.643496 5 6 ack 40 ------- 0 5.0 0.0 26 97
- 2.64982 0 6 tcp 1040 ------- 0 0.0 5.0 25 86
r 2.669344 6 5 tcp 1040 ------- 0 0.0 5.0 24 85
h 2.669344 5 6 ack 40 ------- 0 5.0 0.0 26 98
+ 2.689344 5 6 ack 40 ------- 0 5.0 0.0 26 98
- 2.693108 0 6 tcp 1040 ------- 0 0.0 5.0 26 87
r 2.712632 6 5 tcp 1040 ------- 0 0.0 5.0 25 86
h 2.712632 5 6 ack 40 ------- 0 5.0 0.0 26 99
+ 2.732632 5 6 ack 40 ------- 0 5.0 0.0 26 99
- 2.735748 0 6 tcp 1040 ------- 0 0.0 5.0 27 88
r 2.755272 6 5 tcp 1040 ------- 0 0.0 5.0 26 87
h 2.755272 5 6 ack 40 ------- 0 5.0 0.0 26 100
+ 2.775272 5 6 ack 40 ------- 0 5.0 0.0 26 100
- 2.781596 0 6 tcp 1040 ------- 0 0.0 5.0 28 89
r 2.80112 6 5 tcp 1040 ------- 0 0.0 5.0 27 88
h 2.80112 5 6 ack 40 ------- 0 5.0 0.0 27 101
+ 2.82112 5 6 ack 40 ------- 0 5.0 0.0 27 101
- 2.824236 0 6 tcp 1040 ------- 0 0.0 5.0 29 90
r 2.84376 6 5 tcp 1040 ------- 0 0.0 5.0 28 89
h 2.84376 5 6 ack 40 ------- 0 5.0 0.0 28 102
+ 2.86376 5 6 ack 40 ------- 0 5.0 0.0 28 102
- 2.866876 0 6 tcp 1040 ------- 0 0.0 5.0 30 91
r 2.8864 6 5 tcp 1040 ------- 0 0.0 5.0 29 90
h 2.8864 5 6 ack 40 ------- 0 5.0 0.0 29 103
+ 2.9064 5 6 ack 40 ------- 0 5.0 0.0 29 103
- 2.909516 0 6 tcp 1040 ------- 0 0.0 5.0 31 92
r 2.92904 6 5 tcp 1040 ------- 0 0.0 5.0 30 91
h 2.92904 5 6 ack 40 ------- 0 5.0 0.0 30 104
+ 2.94904 5 6 ack 40 ------- 0 5.0 0.0 30 104
r 2.972328 6 5 tcp 1040 ------- 0 0.0 5.0 31 92
h 2.972328 5 6 ack 40 ------- 0 5.0 0.0 31 105
+ 2.992328 5 6 ack 40 ------- 0 5.0 0.0 31 105
- 3.22808 5 6 ack 40 ------- 0 5.0 0.0 26 95
- 3.23112 5 6 ack 40 ------- 0 5.0 0.0 26 96
- 3.23416 5 6 ack 40 ------- 0 5.0 0.0 26 97
- 3.2372 5 6 ack 40 ------- 0 5.0 0.0 26 98
- 3.24024 5 6 ack 40 ------- 0 5.0 0.0 26 99
- 3.24328 5 6 ack 40 ------- 0 5.0 0.0 26 100
- 3.24632 5 6 ack 40 ------- 0 5.0 0.0 27 101
r 3.247604 6 0 ack 40 ------- 0 5.0 0.0 26 93
h 3.247604 0 6 tcp 1040 ------- 0 0.0 5.0 32 106
- 3.24936 5 6 ack 40 ------- 0 5.0 0.0 28 102
r 3.250644 6 0 ack 40 ------- 0 5.0 0.0 26 95
- 3.2524 5 6 ack 40 ------- 0 5.0 0.0 29 103
r 3.253684 6 0 ack 40 ------- 0 5.0 0.0 26 96
- 3.25544 5 6 ack 40 ------- 0 5.0 0.0 30 104
r 3.256724 6 0 ack 40 ------- 0 5.0 0.0 26 97
- 3.25848 5 6 ack 40 ------- 0 5.0 0.0 31 105
r 3.259764 6 0 ack 40 ------- 0 5.0 0.0 26 98
r 3.262804 6 0 ack 40 ------- 0 5.0 0.0 26 99
r 3.265844 6 0 ack 40 ------- 0 5.0 0.0 26 100
+ 3.267604 0 6 tcp 1040 ------- 0 0.0 5.0 32 106
- 3.267604 0 6 tcp 1040 ------- 0 0.0 5.0 32 106
r 3.268884 6 0 ack 40 ------- 0 5.0 0.0 27 101
r 3.271924 6 0 ack 40 ------- 0 5.0 0.0 28 102
h 3.271924 0 6 tcp 1040 ------- 0 0.0 5.0 33 107
r 3.274964 6 0 ack 40 ------- 0 5.0 0.0 29 103
h 3.274964 0 6 tcp 1040 ------- 0 0.0 5.0 34 108
r 3.278004 6 0 ack 40 ------- 0 5.0 0.0 30 104
h 3.278004 0 6 tcp 1040 ------- 0 0.0 5.0 35 109
r 3.281044 6 0 ack 40 ------- 0 5.0 0.0 31 105
h 3.281044 0 6 tcp 1040 ------- 0 0.0 5.0 36 110
+ 3.291924 0 6 tcp 1040 ------- 0 0.0 5.0 33 107
+ 3.294964 0 6 tcp 1040 ------- 0 0.0 5.0 34 108
+ 3.298004 0 6 tcp 1040 ------- 0 0.0 5.0 35 109
+ 3.301044 0 6 tcp 1040 ------- 0 0.0 5.0 36 110
- 3.310244 0 6 tcp 1040 ------- 0 0.0 5.0 33 107
r 3.329768 6 5 tcp 1040 ------- 0 0.0 5.0 32 106
h 3.329768 5 6 ack 40 ------- 0 5.0 0.0 32 111
+ 3.349768 5 6 ack 40 ------- 0 5.0 0.0 32 111
- 3.349768 5 6 ack 40 ------- 0 5.0 0.0 32 111
- 3.352884 0 6 tcp 1040 ------- 0 0.0 5.0 34 108
r 3.372408 6 5 tcp 1040 ------- 0 0.0 5.0 33 107
h 3.372408 5 6 ack 40 ------- 0 5.0 0.0 33 112
r 3.3793 6 0 ack 40 ------- 0 5.0 0.0 32 111
h 3.3793 0 6 tcp 1040 ------- 0 0.0 5.0 37 113
+ 3.392408 5 6 ack 40 ------- 0 5.0 0.0 33 112
- 3.392408 5 6 ack 40 ------- 0 5.0 0.0 33 112
+ 3.3993 0 6 tcp 1040 ------- 0 0.0 5.0 37 113
- 3.404492 0 6 tcp 1040 ------- 0 0.0 5.0 35 109
r 3.424016 6 5 tcp 1040 ------- 0 0.0 5.0 34 108
h 3.424016 5 6 ack 40 ------- 0 5.0 0.0 34 114
r 3.4277 6 0 ack 40 ------- 0 5.0 0.0 33 112
h 3.4277 0 6 tcp 1040 ------- 0 0.0 5.0 38 115
+ 3.444016 5 6 ack 40 ------- 0 5.0 0.0 34 114
- 3.444016 5 6 ack 40 ------- 0 5.0 0.0 34 114
+ 3.4477 0 6 tcp 1040 ------- 0 0.0 5.0 38 115
- 3.45082 0 6 tcp 1040 ------- 0 0.0 5.0 36 110
r 3.470344 6 5 tcp 1040 ------- 0 0.0 5.0 35 109
h 3.470344 5 6 ack 40 ------- 0 5.0 0.0 35 116
r 3.482356 6 0 ack 40 ------- 0 5.0 0.0 34 114
h 3.482356 0 6 tcp 1040 ------- 0 0.0 5.0 39 117
h 3.482356 0 6 tcp 1040 ------- 0 0.0 5.0 40 118
+ 3.490344 5 6 ack 40 ------- 0 5.0 0.0 35 116
- 3.490344 5 6 ack 40 ------- 0 5.0 0.0 35 116
+ 3.502356 0 6 tcp 1040 ------- 0 0.0 5.0 39 117
+ 3.502356 0 6 tcp 1040 ------- 0 0.0 5.0 40 118
- 3.505476 0 6 tcp 1040 ------- 0 0.0 5.0 37 113
r 3.525 6 5 tcp 1040 ------- 0 0.0 5.0 36 110
h 3.525 5 6 ack 40 ------- 0 5.0 0.0 36 119
r 3.528684 6 0 ack 40 ------- 0 5.0 0.0 35 116
h 3.528684 0 6 tcp 1040 ------- 0 0.0 5.0 41 120
+ 3.545 5 6 ack 40 ------- 0 5.0 0.0 36 119
- 3.545 5 6 ack 40 ------- 0 5.0 0.0 36 119
+ 3.548684 0 6 tcp 1040 ------- 0 0.0 5.0 41 120
- 3.551804 0 6 tcp 1040 ------- 0 0.0 5.0 38 115
r 3.571328 6 5 tcp 1040 ------- 0 0.0 5.0 37 113
h 3.571328 5 6 ack 40 ------- 0 5.0 0.0 37 121
+ 3.591328 5 6 ack 40 ------- 0 5.0 0.0 37 121
- 3.595092 0 6 tcp 1040 ------- 0 0.0 5.0 39 117
r 3.614616 6 5 tcp 1040 ------- 0 0.0 5.0 38 115
h 3.614616 5 6 ack 40 ------- 0 5.0 0.0 38 122
+ 3.634616 5 6 ack 40 ------- 0 5.0 0.0 38 122
- 3.63838 0 6 tcp 1040 ------- 0 0.0 5.0 40 118
r 3.657904 6 5 tcp 1040 ------- 0 0.0 5.0 39 117
h 3.657904 5 6 ack 40 ------- 0 5.0 0.0 39 123
+ 3.677904 5 6 ack 40 ------- 0 5.0 0.0 39 123
- 3.681668 0 6 tcp 1040 ------- 0 0.0 5.0 41 120
r 3.701192 6 5 tcp 1040 ------- 0 0.0 5.0 40 118
h 3.701192 5 6 ack 40 ------- 0 5.0 0.0 40 124
+ 3.721192 5 6 ack 40 ------- 0 5.0 0.0 40 124
- 3.728 5 6 ack 40 ------- 0 5.0 0.0 37 121
- 3.73104 5 6 ack 40 ------- 0 5.0 0.0 38 122
- 3.73408 5 6 ack 40 ------- 0 5.0 0.0 39 123
- 3.73712 5 6 ack 40 ------- 0 5.0 0.0 40 124
r 3.74448 6 5 tcp 1040 ------- 0 0.0 5.0 41 120
h 3.74448 5 6 ack 40 ------- 0 5.0 0.0 41 125
r 3.747524 6 0 ack 40 ------- 0 5.0 0.0 36 119
h 3.747524 0 6 tcp 1040 ------- 0 0.0 5.0 42 126
r 3.750564 6 0 ack 40 ------- 0 5.0 0.0 37 121
h 3.750564 0 6 tcp 1040 ------- 0 0.0 5.0 43 127
r 3.753604 6 0 ack 40 ------- 0 5.0 0.0 38 122
h 3.753604 0 6 tcp 1040 ------- 0 0.0 5.0 44 128
r 3.756644 6 0 ack 40 ------- 0 5.0 0.0 39 123
h 3.756644 0 6 tcp 1040 ------- 0 0.0 5.0 45 129
r 3.759684 6 0 ack 40 ------- 0 5.0 0.0 40 124
h 3.759684 0 6 tcp 1040 ------- 0 0.0 5.0 46 130
h 3.759684 0 6 tcp 1040 ------- 0 0.0 5.0 47 131
+ 3.76448 5 6 ack 40 ------- 0 5.0 0.0 41 125
- 3.76448 5 6 ack 40 ------- 0 5.0 0.0 41 125
+ 3.767524 0 6 tcp 1040 ------- 0 0.0 5.0 42 126
- 3.767524 0 6 tcp 1040 ------- 0 0.0 5.0 42 126
+ 3.770564 0 6 tcp 1040 ------- 0 0.0 5.0 43 127
+ 3.773604 0 6 tcp 1040 ------- 0 0.0 5.0 44 128
+ 3.776644 0 6 tcp 1040 ------- 0 0.0 5.0 45 129
+ 3.779684 0 6 tcp 1040 ------- 0 0.0 5.0 46 130
+ 3.779684 0 6 tcp 1040 ------- 0 0.0 5.0 47 131
r 3.787044 6 0 ack 40 ------- 0 5.0 0.0 41 125
h 3.787044 0 6 tcp 1040 ------- 0 0.0 5.0 48 132
+ 3.807044 0 6 tcp 1040 ------- 0 0.0 5.0 48 132
- 3.810164 0 6 tcp 1040 ------- 0 0.0 5.0 43 127
r 3.829688 6 5 tcp 1040 ------- 0 0.0 5.0 42 126
h 3.829688 5 6 ack 40 ------- 0 5.0 0.0 42 133
+ 3.849688 5 6 ack 40 ------- 0 5.0 0.0 42 133
- 3.849688 5 6 ack 40 ------- 0 5.0 0.0 42 133
- 3.852804 0 6 tcp 1040 ------- 0 0.0 5.0 44 128
r 3.872328 6 5 tcp 1040 ------- 0 0.0 5.0 43 127
h 3.872328 5 6 ack 40 ------- 0 5.0 0.0 43 134
r 3.88178 6 0 ack 40 ------- 0 5.0 0.0 42 133
h 3.88178 0 6 tcp 1040 ------- 0 0.0 5.0 49 135
+ 3.892328 5 6 ack 40 ------- 0 5.0 0.0 43 134
- 3.892328 5 6 ack 40 ------- 0 5.0 0.0 43 134
+ 3.90178 0 6 tcp 1040 ------- 0 0.0 5.0 49 135
- 3.906972 0 6 tcp 1040 ------- 0 0.0 5.0 45 129
r 3.926496 6 5 tcp 1040 ------- 0 0.0 5.0 44 128
h 3.926496 5 6 ack 40 ------- 0 5.0 0.0 44 136
r 3.93018 6 0 ack 40 ------- 0 5.0 0.0 43 134
h 3.93018 0 6 tcp 1040 ------- 0 0.0 5.0 50 137
+ 3.946496 5 6 ack 40 ------- 0 5.0 0.0 44 136
- 3.946496 5 6 ack 40 ------- 0 5.0 0.0 44 136
+ 3.95018 0 6 tcp 1040 ------- 0 0.0 5.0 50 137
- 3.961624 0 6 tcp 1040 ------- 0 0.0 5.0 46 130
r 3.981148 6 5 tcp 1040 ------- 0 0.0 5.0 45 129
h 3.981148 5 6 ack 40 ------- 0 5.0 0.0 45 138
r 3.98548 6 0 ack 40 ------- 0 5.0 0.0 44 136
h 3.98548 0 6 tcp 1040 ------- 0 0.0 5.0 51 139
+ 4.001148 5 6 ack 40 ------- 0 5.0 0.0 45 138
- 4.001148 5 6 ack 40 ------- 0 5.0 0.0 45 138
+ 4.00548 0 6 tcp 1040 ------- 0 0.0 5.0 51 139
- 4.013232 0 6 tcp 1040 ------- 0 0.0 5.0 47 131
r 4.032756 6 5 tcp 1040 ------- 0 0.0 5.0 46 130
h 4.032756 5 6 ack 40 ------- 0 5.0 0.0 46 140
+ 4.052756 5 6 ack 40 ------- 0 5.0 0.0 46 140
- 4.05652 0 6 tcp 1040 ------- 0 0.0 5.0 48 132
r 4.076044 6 5 tcp 1040 ------- 0 0.0 5.0 47 131
h 4.076044 5 6 ack 40 ------- 0 5.0 0.0 47 141
+ 4.096044 5 6 ack 40 ------- 0 5.0 0.0 47 141
- 4.102368 0 6 tcp 1040 ------- 0 0.0 5.0 49 135
r 4.121892 6 5 tcp 1040 ------- 0 0.0 5.0 48 132
h 4.121892 5 6 ack 40 ------- 0 5.0 0.0 48 142
+ 4.141892 5 6 ack 40 ------- 0 5.0 0.0 48 142
- 4.148216 0 6 tcp 1040 ------- 0 0.0 5.0 50 137
r 4.16774 6 5 tcp 1040 ------- 0 0.0 5.0 49 135
h 4.16774 5 6 ack 40 ------- 0 5.0 0.0 49 143
+ 4.18774 5 6 ack 40 ------- 0 5.0 0.0 49 143
- 4.191504 0 6 tcp 1040 ------- 0 0.0 5.0 51 139
r 4.211028 6 5 tcp 1040 ------- 0 0.0 5.0 50 137
h 4.211028 5 6 ack 40 ------- 0 5.0 0.0 50 144
+ 4.231028 5 6 ack 40 ------- 0 5.0 0.0 50 144
- 4.240396 5 6 ack 40 ------- 0 5.0 0.0 46 140
- 4.243436 5 6 ack 40 ------- 0 5.0 0.0 47 141
- 4.246476 5 6 ack 40 ------- 0 5.0 0.0 48 142
- 4.249516 5 6 ack 40 ------- 0 5.0 0.0 49 143
- 4.252556 5 6 ack 40 ------- 0 5.0 0.0 50 144
r 4.256876 6 5 tcp 1040 ------- 0 0.0 5.0 51 139
h 4.256876 5 6 ack 40 ------- 0 5.0 0.0 51 145
r 4.25992 6 0 ack 40 ------- 0 5.0 0.0 45 138
h 4.25992 0 6 tcp 1040 ------- 0 0.0 5.0 52 146
r 4.26296 6 0 ack 40 ------- 0 5.0 0.0 46 140
h 4.26296 0 6 tcp 1040 ------- 0 0.0 5.0 53 147
r 4.266 6 0 ack 40 ------- 0 5.0 0.0 47 141
h 4.266 0 6 tcp 1040 ------- 0 0.0 5.0 54 148
h 4.266 0 6 tcp 1040 ------- 0 0.0 5.0 55 149
r 4.26904 6 0 ack 40 ------- 0 5.0 0.0 48 142
h 4.26904 0 6 tcp 1040 ------- 0 0.0 5.0 56 150
r 4.27208 6 0 ack 40 ------- 0 5.0 0.0 49 143
h 4.27208 0 6 tcp 1040 ------- 0 0.0 5.0 57 151
r 4.27512 6 0 ack 40 ------- 0 5.0 0.0 50 144
h 4.27512 0 6 tcp 1040 ------- 0 0.0 5.0 58 152
+ 4.276876 5 6 ack 40 ------- 0 5.0 0.0 51 145
- 4.276876 5 6 ack 40 ------- 0 5.0 0.0 51 145
+ 4.27992 0 6 tcp 1040 ------- 0 0.0 5.0 52 146
- 4.27992 0 6 tcp 1040 ------- 0 0.0 5.0 52 146
+ 4.28296 0 6 tcp 1040 ------- 0 0.0 5.0 53 147
+ 4.286 0 6 tcp 1040 ------- 0 0.0 5.0 54 148
+ 4.286 0 6 tcp 1040 ------- 0 0.0 5.0 55 149
+ 4.28904 0 6 tcp 1040 ------- 0 0.0 5.0 56 150
+ 4.29208 0 6 tcp 1040 ------- 0 0.0 5.0 57 151
+ 4.29512 0 6 tcp 1040 ------- 0 0.0 5.0 58 152
r 4.29944 6 0 ack 40 ------- 0 5.0 0.0 51 145
h 4.29944 0 6 tcp 1040 ------- 0 0.0 5.0 59 153
+ 4.31944 0 6 tcp 1040 ------- 0 0.0 5.0 59 153
- 4.32256 0 6 tcp 1040 ------- 0 0.0 5.0 53 147
r 4.342084 6 5 tcp 1040 ------- 0 0.0 5.0 52 146
h 4.342084 5 6 ack 40 ------- 0 5.0 0.0 52 154
+ 4.362084 5 6 ack 40 ------- 0 5.0 0.0 52 154
- 4.362084 5 6 ack 40 ------- 0 5.0 0.0 52 154
- 4.3652 0 6 tcp 1040 ------- 0 0.0 5.0 54 148
r 4.384724 6 5 tcp 1040 ------- 0 0.0 5.0 53 147
h 4.384724 5 6 ack 40 ------- 0 5.0 0.0 53 155
r 4.391616 6 0 ack 40 ------- 0 5.0 0.0 52 154
h 4.391616 0 6 tcp 1040 ------- 0 0.0 5.0 60 156
+ 4.404724 5 6 ack 40 ------- 0 5.0 0.0 53 155
- 4.404724 5 6 ack 40 ------- 0 5.0 0.0 53 155
+ 4.411616 0 6 tcp 1040 ------- 0 0.0 5.0 60 156
- 4.416808 0 6 tcp 1040 ------- 0 0.0 5.0 55 149
r 4.436332 6 5 tcp 1040 ------- 0 0.0 5.0 54 148
h 4.436332 5 6 ack 40 ------- 0 5.0 0.0 54 157
+ 4.456332 5 6 ack 40 ------- 0 5.0 0.0 54 157
- 4.460096 0 6 tcp 1040 ------- 0 0.0 5.0 56 150
r 4.47962 6 5 tcp 1040 ------- 0 0.0 5.0 55 149
h 4.47962 5 6 ack 40 ------- 0 5.0 0.0 55 158
+ 4.49962 5 6 ack 40 ------- 0 5.0 0.0 55 158
- 4.503384 0 6 tcp 1040 ------- 0 0.0 5.0 57 151
r 4.522908 6 5 tcp 1040 ------- 0 0.0 5.0 56 150
h 4.522908 5 6 ack 40 ------- 0 5.0 0.0 56 159
+ 4.542908 5 6 ack 40 ------- 0 5.0 0.0 56 159
- 4.549232 0 6 tcp 1040 ------- 0 0.0 5.0 58 152
- 4.552916 5 6 ack 40 ------- 0 5.0 0.0 54 157
- 4.556604 5 6 ack 40 ------- 0 5.0 0.0 55 158
- 4.559644 5 6 ack 40 ------- 0 5.0 0.0 56 159
r 4.568756 6 5 tcp 1040 ------- 0 0.0 5.0 57 151
h 4.568756 5 6 ack 40 ------- 0 5.0 0.0 57 160
r 4.57244 6 0 ack 40 ------- 0 5.0 0.0 53 155
h 4.57244 0 6 tcp 1040 ------- 0 0.0 5.0 61 161
r 4.576128 6 0 ack 40 ------- 0 5.0 0.0 54 157
h 4.576128 0 6 tcp 1040 ------- 0 0.0 5.0 62 162
r 4.579168 6 0 ack 40 ------- 0 5.0 0.0 55 158
h 4.579168 0 6 tcp 1040 ------- 0 0.0 5.0 63 163
r 4.585416 6 0 ack 40 ------- 0 5.0 0.0 56 159
h 4.585416 0 6 tcp 1040 ------- 0 0.0 5.0 64 164
h 4.585416 0 6 tcp 1040 ------- 0 0.0 5.0 65 165
+ 4.588756 5 6 ack 40 ------- 0 5.0 0.0 57 160
- 4.588756 5 6 ack 40 ------- 0 5.0 0.0 57 160
+ 4.59244 0 6 tcp 1040 ------- 0 0.0 5.0 61 161
+ 4.596128 0 6 tcp 1040 ------- 0 0.0 5.0 62 162
+ 4.599168 0 6 tcp 1040 ------- 0 0.0 5.0 63 163
+ 4.605416 0 6 tcp 1040 ------- 0 0.0 5.0 64 164