V -t * -v 1.0a5 -a 0
A -t * -n 1 -p 0 -o 0x7fffffff -c 30 -a 1
A -t * -h 1 -m 1073741823 -s 0
n -t * -a 4 -s 4 -S UP -v circle -c black -i black
n -t * -a 0 -s 0 -S UP -v circle -c black -i black
n -t * -a 5 -s 5 -S UP -v circle -c black -i black
n -t * -a 1 -s 1 -S UP -v circle -c black -i black
n -t * -a 2 -s 2 -S UP -v circle -c black -i black
n -t * -a 3 -s 3 -S UP -v circle -c black -i black
X -t * -n 6 -r 0.2Mb -D 20ms -o left
L -t * -s 6 -d 0 -o up
L -t * -s 6 -d 1 -o down
L -t * -s 6 -d 2 -o up
L -t * -s 6 -d 3 -o down
L -t * -s 6 -d 4 -o up
L -t * -s 6 -d 5 -o down
h -t 0.1 -s 0 -d 6 -p tcp -e 40 -c 0 -i 0 -a 0 -x {0.0 5.0 0 ------- null}
+ -t 0.12 -s 0 -d 6 -p tcp -e 40 -c 0 -i 0 -a 0 -x {0.0 5.0 0 ------- null}
- -t 0.12 -s 0 -d 6 -p tcp -e 40 -c 0 -i 0 -a 0 -x {0.0 5.0 0 ------- null}
h -t 0.12 -s 0 -d 6 -p tcp -e 40 -c 0 -i 0 -a 0 -x {0.0 5.0 -1 ------- null}
r -t 0.142564 -s 6 -d 5 -p tcp -e 40 -c 0 -i 0 -a 0 -x {0.0 5.0 0 ------- null}
h -t 0.142564 -s 5 -d 6 -p ack -e 40 -c 0 -i 1 -a 0 -x {5.0 0.0 0 ------- null}
+ -t 0.162564 -s 5 -d 6 -p ack -e 40 -c 0 -i 1 -a 0 -x {5.0 0.0 0 ------- null}
- -t 0.162564 -s 5 -d 6 -p ack -e 40 -c 0 -i 1 -a 0 -x {5.0 0.0 0 ------- null}
h -t 0.162564 -s 5 -d 6 -p ack -e 40 -c 0 -i 1 -a 0 -x {5.0 0.0 -1 ------- null}
r -t 0.185128 -s 6 -d 0 -p ack -e 40 -c 0 -i 1 -a 0 -x {5.0 0.0 0 ------- null}
h -t 0.185128 -s 0 -d 6 -p tcp -e 1040 -c 0 -i 2 -a 0 -x {0.0 5.0 1 ------- null}
h -t 0.185128 -s 0 -d 6 -p tcp -e 1040 -c 0 -i 3 -a 0 -x {0.0 5.0 2 ------- null}
+ -t 0.205128 -s 0 -d 6 -p tcp -e 1040 -c 0 -i 2 -a 0 -x {0.0 5.0 1 ------- null}
- -t 0.205128 -s 0 -d 6 -p tcp -e 1040 -c 0 -i 2 -a 0 -x {0.0 5.0 1 ------- null}
h -t 0.205128 -s 0 -d 6 -p tcp -e 1040 -c 0 -i 2 -a 0 -x {0.0 5.0 -1 ------- null}
+ -t 0.205128 -s 0 -d 6 -p tcp -e 1040 -c 0 -i 3 -a 0 -x {0.0 5.0 2 ------- null}
- -t 0.247768 -s 0 -d 6 -p tcp -e 1040 -c 0 -i 3 -a 0 -x {0.0 5.0 2 ------- null}
h -t 0.247768 -s 0 -d 6 -p tcp -e 1040 -c 0 -i 3 -a 0 -x {0.0 5.0 -1 ------- null}
r -t 0.267292 -s 6 -d 5 -p tcp -e 1040 -c 0 -i 2 -a 0 -x {0.0 5.0 1 ------- null}
h -t 0.267292 -s 5 -d 6 -p ack -e 40 -c 0 -i 4 -a 0 -x {5.0 0.0 1 ------- null}
+ -t 0.287292 -s 5 -d 6 -p ack -e 40 -c 0 -i 4 -a 0 -x {5.0 0.0 1 ------- null}
- -t 0.287292 -s 5 -d 6 -p ack -e 40 -c 0 -i 4 -a 0 -x {5.0 0.0 1 ------- null}
h -t 0.287292 -s 5 -d 6 -p ack -e 40 -c 0 -i 4 -a 0 -x {5.0 0.0 -1 ------- null}
r -t 0.309932 -s 6 -d 5 -p tcp -e 1040 -c 0 -i 3 -a 0 -x {0.0 5.0 2 ------- null}
h -t 0.309932 -s 5 -d 6 -p ack -e 40 -c 0 -i 5 -a 0 -x {5.0 0.0 2 ------- null}
r -t 0.312976 -s 6 -d 0 -p ack -e 40 -c 0 -i 4 -a 0 -x {5.0 0.0 1 ------- null}
h -t 0.312976 -s 0 -d 6 -p tcp -e 1040 -c 0 -i 6 -a 0 -x {0.0 5.0 3 ------- null}
h -t 0.312976 -s 0 -d 6 -p tcp -e 1040 -c 0 -i 7 -a 0 -x {0.0 5.0 4 ------- null}
+ -t 0.329932 -s 5 -d 6 -p ack -e 40 -c 0 -i 5 -a 0 -x {5.0 0.0 2 ------- null}
- -t 0.329932 -s 5 -d 6 -p ack -e 40 -c 0 -i 5 -a 0 -x {5.0 0.0 2 ------- null}
h -t 0.329932 -s 5 -d 6 -p ack -e 40 -c 0 -i 5 -a 0 -x {5.0 0.0 -1 ------- null}
+ -t 0.332976 -s 0 -d 6 -p tcp -e 1040 -c 0 -i 6 -a 0 -x {0.0 5.0 3 ------- null}
- -t 0.332976 -s 0 -d 6 -p tcp -e 1040 -c 0 -i 6 -a 0 -x {0.0 5.0 3 ------- null}
h -t 0.332976 -s 0 -d 6 -p tcp -e 1040 -c 0 -i 6 -a 0 -x {0.0 5.0 -1 ------- null}
+ -t 0.332976 -s 0 -d 6 -p tcp -e 1040 -c 0 -i 7 -a 0 -x {0.0 5.0 4 ------- null}
r -t 0.352496 -s 6 -d 0 -p ack -e 40 -c 0 -i 5 -a 0 -x {5.0 0.0 2 ------- null}
h -t 0.352496 -s 0 -d 6 -p tcp -e 1040 -c 0 -i 8 -a 0 -x {0.0 5.0 5 ------- null}
h -t 0.352496 -s 0 -d 6 -p tcp -e 1040 -c 0 -i 9 -a 0 -x {0.0 5.0 6 ------- null}
+ -t 0.372496 -s 0 -d 6 -p tcp -e 1040 -c 0 -i 8 -a 0 -x {0.0 5.0 5 ------- null}
+ -t 0.372496 -s 0 -d 6 -p tcp -e 1040 -c 0 -i 9 -a 0 -x {0.0 5.0 6 ------- null}
- -t 0.375616 -s 0 -d 6 -p tcp -e 1040 -c 0 -i 7 -a 0 -x {0.0 5.0 4 ------- null}
h -t 0.375616 -s 0 -d 6 -p tcp -e 1040 -c 0 -i 7 -a 0 -x {0.0 5.0 -1 ------- null}
r -t 0.39514 -s 6 -d 5 -p tcp -e 1040 -c 0 -i 6 -a 0 -x {0.0 5.0 3 ------- null}
h -t 0.39514 -s 5 -d 6 -p ack -e 40 -c 0 -i 10 -a 0 -x {5.0 0.0 3 ------- null}
h -t 0.4 -s 1 -d 6 -p tcp -e 40 -c 0 -i 11 -a 0 -x {1.0 5.1 0 ------- null}
+ -t 0.41514 -s 5 -d 6 -p ack -e 40 -c 0 -i 10 -a 0 -x {5.0 0.0 3 ------- null}
- -t 0.41514 -s 5 -d 6 -p ack -e 40 -c 0 -i 10 -a 0 -x {5.0 0.0 3 ------- null}
h -t 0.41514 -s 5 -d 6 -p ack -e 40 -c 0 -i 10 -a 0 -x {5.0 0.0 -1 ------- null}
- -t 0.418256 -s 0 -d 6 -p tcp -e 1040 -c 0 -i 8 -a 0 -x {0.0 5.0 5 ------- null}
h -t 0.418256 -s 0 -d 6 -p tcp -e 1040 -c 0 -i 8 -a 0 -x {0.0 5.0 -1 ------- null}
+ -t 0.42 -s 1 -d 6 -p tcp -e 40 -c 0 -i 11 -a 0 -x {1.0 5.1 0 ------- null}
- -t 0.42 -s 1 -d 6 -p tcp -e 40 -c 0 -i 11 -a 0 -x {1.0 5.1 0 ------- null}
h -t 0.42 -s 1 -d 6 -p tcp -e 40 -c 0 -i 11 -a 0 -x {1.0 5.1 -1 ------- null}
r -t 0.43778 -s 6 -d 5 -p tcp -e 1040 -c 0 -i 7 -a 0 -x {0.0 5.0 4 ------- null}
h -t 0.43778 -s 5 -d 6 -p ack -e 40 -c 0 -i 12 -a 0 -x {5.0 0.0 4 ------- null}
+ -t 0.45778 -s 5 -d 6 -p ack -e 40 -c 0 -i 12 -a 0 -x {5.0 0.0 4 ------- null}
- -t 0.461544 -s 0 -d 6 -p tcp -e 1040 -c 0 -i 9 -a 0 -x {0.0 5.0 6 ------- null}
h -t 0.461544 -s 0 -d 6 -p tcp -e 1040 -c 0 -i 9 -a 0 -x {0.0 5.0 -1 ------- null}
r -t 0.481068 -s 6 -d 5 -p tcp -e 1040 -c 0 -i 8 -a 0 -x {0.0 5.0 5 ------- null}
h -t 0.481068 -s 5 -d 6 -p ack -e 40 -c 0 -i 13 -a 0 -x {5.0 0.0 5 ------- null}
+ -t 0.501068 -s 5 -d 6 -p ack -e 40 -c 0 -i 13 -a 0 -x {5.0 0.0 5 ------- null}
- -t 0.51172 -s 5 -d 6 -p ack -e 40 -c 0 -i 12 -a 0 -x {5.0 0.0 4 ------- null}
h -t 0.51172 -s 5 -d 6 -p ack -e 40 -c 0 -i 12 -a 0 -x {5.0 0.0 -1 ------- null}
- -t 0.51476 -s 5 -d 6 -p ack -e 40 -c 0 -i 13 -a 0 -x {5.0 0.0 5 ------- null}
h -t 0.51476 -s 5 -d 6 -p ack -e 40 -c 0 -i 13 -a 0 -x {5.0 0.0 -1 ------- null}
r -t 0.527556 -s 6 -d 5 -p tcp -e 1040 -c 0 -i 9 -a 0 -x {0.0 5.0 6 ------- null}
h -t 0.527556 -s 5 -d 6 -p ack -e 40 -c 0 -i 14 -a 0 -x {5.0 0.0 6 ------- null}
r -t 0.531244 -s 6 -d 0 -p ack -e 40 -c 0 -i 10 -a 0 -x {5.0 0.0 3 ------- null}
h -t 0.531244 -s 0 -d 6 -p tcp -e 1040 -c 0 -i 15 -a 0 -x {0.0 5.0 7 ------- null}
h -t 0.531244 -s 0 -d 6 -p tcp -e 1040 -c 0 -i 16 -a 0 -x {0.0 5.0 8 ------- null}
r -t 0.534284 -s 6 -d 0 -p ack -e 40 -c 0 -i 12 -a 0 -x {5.0 0.0 4 ------- null}
h -t 0.534284 -s 0 -d 6 -p tcp -e 1040 -c 0 -i 17 -a 0 -x {0.0 5.0 9 ------- null}
h -t 0.534284 -s 0 -d 6 -p tcp -e 1040 -c 0 -i 18 -a 0 -x {0.0 5.0 10 ------- null}
r -t 0.537324 -s 6 -d 0 -p ack -e 40 -c 0 -i 13 -a 0 -x {5.0 0.0 5 ------- null}
h -t 0.537324 -s 0 -d 6 -p tcp -e 1040 -c 0 -i 19 -a 0 -x {0.0 5.0 11 ------- null}
h -t 0.537324 -s 0 -d 6 -p tcp -e 1040 -c 0 -i 20 -a 0 -x {0.0 5.0 12 ------- null}
+ -t 0.547556 -s 5 -d 6 -p ack -e 40 -c 0 -i 14 -a 0 -x {5.0 0.0 6 ------- null}
- -t 0.547556 -s 5 -d 6 -p ack -e 40 -c 0 -i 14 -a 0 -x {5.0 0.0 6 ------- null}
h -t 0.547556 -s 5 -d 6 -p ack -e 40 -c 0 -i 14 -a 0 -x {5.0 0.0 -1 ------- null}
r -t 0.549164 -s 6 -d 5 -p tcp -e 40 -c 0 -i 11 -a 0 -x {1.0 5.1 0 ------- null}
h -t 0.549164 -s 5 -d 6 -p ack -e 40 -c 0 -i 21 -a 0 -x {5.1 1.0 0 ------- null}
+ -t 0.551244 -s 0 -d 6 -p tcp -e 1040 -c 0 -i 15 -a 0 -x {0.0 5.0 7 ------- null}
- -t 0.551244 -s 0 -d 6 -p tcp -e 1040 -c 0 -i 15 -a 0 -x {0.0 5.0 7 ------- null}
h -t 0.551244 -s 0 -d 6 -p tcp -e 1040 -c 0 -i 15 -a 0 -x {0.0 5.0 -1 ------- null}
+ -t 0.551244 -s 0 -d 6 -p tcp -e 1040 -c 0 -i 16 -a 0 -x {0.0 5.0 8 ------- null}
+ -t 0.554284 -s 0 -d 6 -p tcp -e 1040 -c 0 -i 17 -a 0 -x {0.0 5.0 9 ------- null}
+ -t 0.554284 -s 0 -d 6 -p tcp -e 1040 -c 0 -i 18 -a 0 -x {0.0 5.0 10 ------- null}
+ -t 0.557324 -s 0 -d 6 -p tcp -e 1040 -c 0 -i 19 -a 0 -x {0.0 5.0 11 ------- null}
+ -t 0.557324 -s 0 -d 6 -p tcp -e 1040 -c 0 -i 20 -a 0 -x {0.0 5.0 12 ------- null}
+ -t 0.569164 -s 5 -d 6 -p ack -e 40 -c 0 -i 21 -a 0 -x {5.1 1.0 0 ------- null}
- -t 0.569164 -s 5 -d 6 -p ack -e 40 -c 0 -i 21 -a 0 -x {5.1 1.0 0 ------- null}
h -t 0.569164 -s 5 -d 6 -p ack -e 40 -c 0 -i 21 -a 0 -x {5.1 1.0 -1 ------- null}
r -t 0.57012 -s 6 -d 0 -p ack -e 40 -c 0 -i 14 -a 0 -x {5.0 0.0 6 ------- null}
h -t 0.57012 -s 0 -d 6 -p tcp -e 1040 -c 0 -i 22 -a 0 -x {0.0 5.0 13 ------- null}
h -t 0.57012 -s 0 -d 6 -p tcp -e 1040 -c 0 -i 23 -a 0 -x {0.0 5.0 14 ------- null}
+ -t 0.59012 -s 0 -d 6 -p tcp -e 1040 -c 0 -i 22 -a 0 -x {0.0 5.0 13 ------- null}
+ -t 0.59012 -s 0 -d 6 -p tcp -e 1040 -c 0 -i 23 -a 0 -x {0.0 5.0 14 ------- null}
- -t 0.593884 -s 0 -d 6 -p tcp -e 1040 -c 0 -i 16 -a 0 -x {0.0 5.0 8 ------- null}
h -t 0.593884 -s 0 -d 6 -p tcp -e 1040 -c 0 -i 16 -a 0 -x {0.0 5.0 -1 ------- null}
r -t 0.613408 -s 6 -d 5 -p tcp -e 1040 -c 0 -i 15 -a 0 -x {0.0 5.0 7 ------- null}
h -t 0.613408 -s 5 -d 6 -p ack -e 40 -c 0 -i 24 -a 0 -x {5.0 0.0 7 ------- null}
r -t 0.617092 -s 6 -d 1 -p ack -e 40 -c 0 -i 21 -a 0 -x {5.1 1.0 0 ------- null}
h -t 0.617092 -s 1 -d 6 -p tcp -e 1040 -c 0 -i 25 -a 0 -x {1.0 5.1 1 ------- null}
h -t 0.617092 -s 1 -d 6 -p tcp -e 1040 -c 0 -i 26 -a 0 -x {1.0 5.1 2 ------- null}
+ -t 0.633408 -s 5 -d 6 -p ack -e 40 -c 0 -i 24 -a 0 -x {5.0 0.0 7 ------- null}
- -t 0.633408 -s 5 -d 6 -p ack -e 40 -c 0 -i 24 -a 0 -x {5.0 0.0 7 ------- null}
h -t 0.633408 -s 5 -d 6 -p ack -e 40 -c 0 -i 24 -a 0 -x {5.0 0.0 -1 ------- null}
+ -t 0.637092 -s 1 -d 6 -p tcp -e 1040 -c 0 -i 25 -a 0 -x {1.0 5.1 1 ------- null}
- -t 0.637092 -s 1 -d 6 -p tcp -e 1040 -c 0 -i 25 -a 0 -x {1.0 5.1 1 ------- null}
h -t 0.637092 -s 1 -d 6 -p tcp -e 1040 -c 0 -i 25 -a 0 -x {1.0 5.1 -1 ------- null}
+ -t 0.637092 -s 1 -d 6 -p tcp -e 1040 -c 0 -i 26 -a 0 -x {1.0 5.1 2 ------- null}
- -t 0.640212 -s 0 -d 6 -p tcp -e 1040 -c 0 -i 17 -a 0 -x {0.0 5.0 9 ------- null}
h -t 0.640212 -s 0 -d 6 -p tcp -e 1040 -c 0 -i 17 -a 0 -x {0.0 5.0 -1 ------- null}
r -t 0.659736 -s 6 -d 5 -p tcp -e 1040 -c 0 -i 16 -a 0 -x {0.0 5.0 8 ------- null}
h -t 0.659736 -s 5 -d 6 -p ack -e 40 -c 0 -i 27 -a 0 -x {5.0 0.0 8 ------- null}
r -t 0.66342 -s 6 -d 0 -p ack -e 40 -c 0 -i 24 -a 0 -x {5.0 0.0 7 ------- null}
h -t 0.66342 -s 0 -d 6 -p tcp -e 1040 -c 0 -i 28 -a 0 -x {0.0 5.0 15 ------- null}
h -t 0.66342 -s 0 -d 6 -p tcp -e 1040 -c 0 -i 29 -a 0 -x {0.0 5.0 16 ------- null}
+ -t 0.679736 -s 5 -d 6 -p ack -e 40 -c 0 -i 27 -a 0 -x {5.0 0.0 8 ------- null}
- -t 0.679736 -s 5 -d 6 -p ack -e 40 -c 0 -i 27 -a 0 -x {5.0 0.0 8 ------- null}
h -t 0.679736 -s 5 -d 6 -p ack -e 40 -c 0 -i 27 -a 0 -x {5.0 0.0 -1 ------- null}
+ -t 0.68342 -s 0 -d 6 -p tcp -e 1040 -c 0 -i 28 -a 0 -x {0.0 5.0 15 ------- null}
+ -t 0.68342 -s 0 -d 6 -p tcp -e 1040 -c 0 -i 29 -a 0 -x {0.0 5.0 16 ------- null}
- -t 0.687184 -s 0 -d 6 -p tcp -e 1040 -c 0 -i 18 -a 0 -x {0.0 5.0 10 ------- null}
h -t 0.687184 -s 0 -d 6 -p tcp -e 1040 -c 0 -i 18 -a 0 -x {0.0 5.0 -1 ------- null}
r -t 0.706708 -s 6 -d 5 -p tcp -e 1040 -c 0 -i 17 -a 0 -x {0.0 5.0 9 ------- null}
h -t 0.706708 -s 5 -d 6 -p ack -e 40 -c 0 -i 30 -a 0 -x {5.0 0.0 9 ------- null}
r -t 0.710392 -s 6 -d 0 -p ack -e 40 -c 0 -i 27 -a 0 -x {5.0 0.0 8 ------- null}
h -t 0.710392 -s 0 -d 6 -p tcp -e 1040 -c 0 -i 31 -a 0 -x {0.0 5.0 17 ------- null}
h -t 0.710392 -s 0 -d 6 -p tcp -e 1040 -c 0 -i 32 -a 0 -x {0.0 5.0 18 ------- null}
+ -t 0.726708 -s 5 -d 6 -p ack -e 40 -c 0 -i 30 -a 0 -x {5.0 0.0 9 ------- null}
- -t 0.726708 -s 5 -d 6 -p ack -e 40 -c 0 -i 30 -a 0 -x {5.0 0.0 9 ------- null}
h -t 0.726708 -s 5 -d 6 -p ack -e 40 -c 0 -i 30 -a 0 -x {5.0 0.0 -1 ------- null}
+ -t 0.730392 -s 0 -d 6 -p tcp -e 1040 -c 0 -i 31 -a 0 -x {0.0 5.0 17 ------- null}
+ -t 0.730392 -s 0 -d 6 -p tcp -e 1040 -c 0 -i 32 -a 0 -x {0.0 5.0 18 ------- null}
- -t 0.739276 -s 0 -d 6 -p tcp -e 1040 -c 0 -i 19 -a 0 -x {0.0 5.0 11 ------- null}
h -t 0.739276 -s 0 -d 6 -p tcp -e 1040 -c 0 -i 19 -a 0 -x {0.0 5.0 -1 ------- null}
r -t 0.7588 -s 6 -d 5 -p tcp -e 1040 -c 0 -i 18 -a 0 -x {0.0 5.0 10 ------- null}
h -t 0.7588 -s 5 -d 6 -p ack -e 40 -c 0 -i 33 -a 0 -x {5.0 0.0 10 ------- null}
+ -t 0.7788 -s 5 -d 6 -p ack -e 40 -c 0 -i 33 -a 0 -x {5.0 0.0 10 ------- null}
- -t 0.785764 -s 0 -d 6 -p tcp -e 1040 -c 0 -i 20 -a 0 -x {0.0 5.0 12 ------- null}
h -t 0.785764 -s 0 -d 6 -p tcp -e 1040 -c 0 -i 20 -a 0 -x {0.0 5.0 -1 ------- null}
r -t 0.805288 -s 6 -d 5 -p tcp -e 1040 -c 0 -i 19 -a 0 -x {0.0 5.0 11 ------- null}
h -t 0.805288 -s 5 -d 6 -p ack -e 40 -c 0 -i 34 -a 0 -x {5.0 0.0 11 ------- null}
+ -t 0.825288 -s 5 -d 6 -p ack -e 40 -c 0 -i 34 -a 0 -x {5.0 0.0 11 ------- null}
- -t 0.831612 -s 0 -d 6 -p tcp -e 1040 -c 0 -i 22 -a 0 -x {0.0 5.0 13 ------- null}
h -t 0.831612 -s 0 -d 6 -p tcp -e 1040 -c 0 -i 22 -a 0 -x {0.0 5.0 -1 ------- null}
r -t 0.851136 -s 6 -d 5 -p tcp -e 1040 -c 0 -i 20 -a 0 -x {0.0 5.0 12 ------- null}
h -t 0.851136 -s 5 -d 6 -p ack -e 40 -c 0 -i 35 -a 0 -x {5.0 0.0 12 ------- null}
+ -t 0.871136 -s 5 -d 6 -p ack -e 40 -c 0 -i 35 -a 0 -x {5.0 0.0 12 ------- null}
- -t 0.87746 -s 0 -d 6 -p tcp -e 1040 -c 0 -i 23 -a 0 -x {0.0 5.0 14 ------- null}
h -t 0.87746 -s 0 -d 6 -p tcp -e 1040 -c 0 -i 23 -a 0 -x {0.0 5.0 -1 ------- null}
r -t 0.896984 -s 6 -d 5 -p tcp -e 1040 -c 0 -i 22 -a 0 -x {0.0 5.0 13 ------- null}
h -t 0.896984 -s 5 -d 6 -p ack -e 40 -c 0 -i 36 -a 0 -x {5.0 0.0 13 ------- null}
+ -t 0.916984 -s 5 -d 6 -p ack -e 40 -c 0 -i 36 -a 0 -x {5.0 0.0 13 ------- null}
- -t 0.923308 -s 0 -d 6 -p tcp -e 1040 -c 0 -i 28 -a 0 -x {0.0 5.0 15 ------- null}
h -t 0.923308 -s 0 -d 6 -p tcp -e 1040 -c 0 -i 28 -a 0 -x {0.0 5.0 -1 ------- null}
r -t 0.942832 -s 6 -d 5 -p tcp -e 1040 -c 0 -i 23 -a 0 -x {0.0 5.0 14 ------- null}
h -t 0.942832 -s 5 -d 6 -p ack -e 40 -c 0 -i 37 -a 0 -x {5.0 0.0 14 ------- null}
+ -t 0.962832 -s 5 -d 6 -p ack -e 40 -c 0 -i 37 -a 0 -x {5.0 0.0 14 ------- null}
- -t 0.965948 -s 0 -d 6 -p tcp -e 1040 -c 0 -i 29 -a 0 -x {0.0 5.0 16 ------- null}
h -t 0.965948 -s 0 -d 6 -p tcp -e 1040 -c 0 -i 29 -a 0 -x {0.0 5.0 -1 ------- null}
r -t 0.985472 -s 6 -d 5 -p tcp -e 1040 -c 0 -i 28 -a 0 -x {0.0 5.0 15 ------- null}
h -t 0.985472 -s 5 -d 6 -p ack -e 40 -c 0 -i 38 -a 0 -x {5.0 0.0 15 ------- null}
+ -t 1.005472 -s 5 -d 6 -p ack -e 40 -c 0 -i 38 -a 0 -x {5.0 0.0 15 ------- null}
- -t 1.011796 -s 0 -d 6 -p tcp -e 1040 -c 0 -i 31 -a 0 -x {0.0 5.0 17 ------- null}
h -t 1.011796 -s 0 -d 6 -p tcp -e 1040 -c 0 -i 31 -a 0 -x {0.0 5.0 -1 ------- null}
r -t 1.03132 -s 6 -d 5 -p tcp -e 1040 -c 0 -i 29 -a 0 -x {0.0 5.0 16 ------- null}
h -t 1.03132 -s 5 -d 6 -p ack -e 40 -c 0 -i 39 -a 0 -x {5.0 0.0 16 ------- null}
h -t 1.050392 -s 0 -d 6 -p tcp -e 1040 -c 0 -i 40 -a 0 -x {0.0 5.0 9 ---A--- null}
+ -t 1.05132 -s 5 -d 6 -p ack -e 40 -c 0 -i 39 -a 0 -x {5.0 0.0 16 ------- null}
- -t 1.055084 -s 0 -d 6 -p tcp -e 1040 -c 0 -i 32 -a 0 -x {0.0 5.0 18 ------- null}
h -t 1.055084 -s 0 -d 6 -p tcp -e 1040 -c 0 -i 32 -a 0 -x {0.0 5.0 -1 ------- null}
+ -t 1.070392 -s 0 -d 6 -p tcp -e 1040 -c 0 -i 40 -a 0 -x {0.0 5.0 9 ---A--- null}
r -t 1.074608 -s 6 -d 5 -p tcp -e 1040 -c 0 -i 31 -a 0 -x {0.0 5.0 17 ------- null}
h -t 1.074608 -s 5 -d 6 -p ack -e 40 -c 0 -i 41 -a 0 -x {5.0 0.0 17 ------- null}
+ -t 1.094608 -s 5 -d 6 -p ack -e 40 -c 0 -i 41 -a 0 -x {5.0 0.0 17 ------- null}
- -t 1.097724 -s 0 -d 6 -p tcp -e 1040 -c 0 -i 40 -a 0 -x {0.0 5.0 9 ---A--- null}
h -t 1.097724 -s 0 -d 6 -p tcp -e 1040 -c 0 -i 40 -a 0 -x {0.0 5.0 -1 ---A--- null}
r -t 1.117248 -s 6 -d 5 -p tcp -e 1040 -c 0 -i 32 -a 0 -x {0.0 5.0 18 ------- null}
h -t 1.117248 -s 5 -d 6 -p ack -e 40 -c 0 -i 42 -a 0 -x {5.0 0.0 18 ------- null}
+ -t 1.137248 -s 5 -d 6 -p ack -e 40 -c 0 -i 42 -a 0 -x {5.0 0.0 18 ------- null}
r -t 1.159888 -s 6 -d 5 -p tcp -e 1040 -c 0 -i 40 -a 0 -x {0.0 5.0 9 ---A--- null}
h -t 1.159888 -s 5 -d 6 -p ack -e 40 -c 0 -i 43 -a 0 -x {5.0 0.0 18 ------- null}
+ -t 1.179888 -s 5 -d 6 -p ack -e 40 -c 0 -i 43 -a 0 -x {5.0 0.0 18 ------- null}
- -t 1.18188 -s 5 -d 6 -p ack -e 40 -c 0 -i 33 -a 0 -x {5.0 0.0 10 ------- null}
h -t 1.18188 -s 5 -d 6 -p ack -e 40 -c 0 -i 33 -a 0 -x {5.0 0.0 -1 ------- null}
- -t 1.18492 -s 5 -d 6 -p ack -e 40 -c 0 -i 34 -a 0 -x {5.0 0.0 11 ------- null}
h -t 1.18492 -s 5 -d 6 -p ack -e 40 -c 0 -i 34 -a 0 -x {5.0 0.0 -1 ------- null}
- -t 1.18796 -s 5 -d 6 -p ack -e 40 -c 0 -i 35 -a 0 -x {5.0 0.0 12 ------- null}
h -t 1.18796 -s 5 -d 6 -p ack -e 40 -c 0 -i 35 -a 0 -x {5.0 0.0 -1 ------- null}
- -t 1.191 -s 5 -d 6 -p ack -e 40 -c 0 -i 36 -a 0 -x {5.0 0.0 13 ------- null}
h -t 1.191 -s 5 -d 6 -p ack -e 40 -c 0 -i 36 -a 0 -x {5.0 0.0 -1 ------- null}
- -t 1.19404 -s 5 -d 6 -p ack -e 40 -c 0 -i 37 -a 0 -x {5.0 0.0 14 ------- null}
h -t 1.19404 -s 5 -d 6 -p ack -e 40 -c 0 -i 37 -a 0 -x {5.0 0.0 -1 ------- null}
- -t 1.19708 -s 5 -d 6 -p ack -e 40 -c 0 -i 38 -a 0 -x {5.0 0.0 15 ------- null}
h -t 1.19708 -s 5 -d 6 -p ack -e 40 -c 0 -i 38 -a 0 -x {5.0 0.0 -1 ------- null}
- -t 1.20012 -s 5 -d 6 -p ack -e 40 -c 0 -i 39 -a 0 -x {5.0 0.0 16 ------- null}
h -t 1.20012 -s 5 -d 6 -p ack -e 40 -c 0 -i 39 -a 0 -x {5.0 0.0 -1 ------- null}
r -t 1.201404 -s 6 -d 0 -p ack -e 40 -c 0 -i 30 -a 0 -x {5.0 0.0 9 ------- null}
h -t 1.201404 -s 0 -d 6 -p tcp -e 1040 -c 0 -i 44 -a 0 -x {0.0 5.0 10 ------- null}
h -t 1.201404 -s 0 -d 6 -p tcp -e 1040 -c 0 -i 45 -a 0 -x {0.0 5.0 11 ------- null}
- -t 1.20316 -s 5 -d 6 -p ack -e 40 -c 0 -i 41 -a 0 -x {5.0 0.0 17 ------- null}
h -t 1.20316 -s 5 -d 6 -p ack -e 40 -c 0 -i 41 -a 0 -x {5.0 0.0 -1 ------- null}
r -t 1.204444 -s 6 -d 0 -p ack -e 40 -c 0 -i 33 -a 0 -x {5.0 0.0 10 ------- null}
h -t 1.204444 -s 0 -d 6 -p tcp -e 1040 -c 0 -i 46 -a 0 -x {0.0 5.0 12 ------- null}
h -t 1.204444 -s 0 -d 6 -p tcp -e 1040 -c 0 -i 47 -a 0 -x {0.0 5.0 13 ------- null}
- -t 1.2062 -s 5 -d 6 -p ack -e 40 -c 0 -i 42 -a 0 -x {5.0 0.0 18 ------- null}
h -t 1.2062 -s 5 -d 6 -p ack -e 40 -c 0 -i 42 -a 0 -x {5.0 0.0 -1 ------- null}
r -t 1.207484 -s 6 -d 0 -p ack -e 40 -c 0 -i 34 -a 0 -x {5.0 0.0 11 ------- null}
h -t 1.207484 -s 0 -d 6 -p tcp -e 1040 -c 0 -i 48 -a 0 -x {0.0 5.0 14 ------- null}
h -t 1.207484 -s 0 -d 6 -p tcp -e 1040 -c 0 -i 49 -a 0 -x {0.0 5.0 15 ------- null}
- -t 1.20924 -s 5 -d 6 -p ack -e 40 -c 0 -i 43 -a 0 -x {5.0 0.0 18 ------- null}
h -t 1.20924 -s 5 -d 6 -p ack -e 40 -c 0 -i 43 -a 0 -x {5.0 0.0 -1 ------- null}
r -t 1.210524 -s 6 -d 0 -p ack -e 40 -c 0 -i 35 -a 0 -x {5.0 0.0 12 ------- null}
h -t 1.210524 -s 0 -d 6 -p tcp -e 1040 -c 0 -i 50 -a 0 -x {0.0 5.0 16 ------- null}
h -t 1.210524 -s 0 -d 6 -p tcp -e 1040 -c 0 -i 51 -a 0 -x {0.0 5.0 17 ------- null}
r -t 1.213564 -s 6 -d 0 -p ack -e 40 -c 0 -i 36 -a 0 -x {5.0 0.0 13 ------- null}
h -t 1.213564 -s 0 -d 6 -p tcp -e 1040 -c 0 -i 52 -a 0 -x {0.0 5.0 18 ------- null}
r -t 1.216604 -s 6 -d 0 -p ack -e 40 -c 0 -i 37 -a 0 -x {5.0 0.0 14 ------- null}
h -t 1.216604 -s 0 -d 6 -p tcp -e 1040 -c 0 -i 53 -a 0 -x {0.0 5.0 19 ------- null}
r -t 1.219644 -s 6 -d 0 -p ack -e 40 -c 0 -i 38 -a 0 -x {5.0 0.0 15 ------- null}
h -t 1.219644 -s 0 -d 6 -p tcp -e 1040 -c 0 -i 54 -a 0 -x {0.0 5.0 20 ------- null}
+ -t 1.221404 -s 0 -d 6 -p tcp -e 1040 -c 0 -i 44 -a 0 -x {0.0 5.0 10 ------- null}
- -t 1.221404 -s 0 -d 6 -p tcp -e 1040 -c 0 -i 44 -a 0 -x {0.0 5.0 10 ------- null}
h -t 1.221404 -s 0 -d 6 -p tcp -e 1040 -c 0 -i 44 -a 0 -x {0.0 5.0 -1 ------- null}
+ -t 1.221404 -s 0 -d 6 -p tcp -e 1040 -c 0 -i 45 -a 0 -x {0.0 5.0 11 ------- null}
r -t 1.222684 -s 6 -d 0 -p ack -e 40 -c 0 -i 39 -a 0 -x {5.0 0.0 16 ------- null}
h -t 1.222684 -s 0 -d 6 -p tcp -e 1040 -c 0 -i 55 -a 0 -x {0.0 5.0 21 ------- null}
+ -t 1.224444 -s 0 -d 6 -p tcp -e 1040 -c 0 -i 46 -a 0 -x {0.0 5.0 12 ------- null}
+ -t 1.224444 -s 0 -d 6 -p tcp -e 1040 -c 0 -i 47 -a 0 -x {0.0 5.0 13 ------- null}
r -t 1.225724 -s 6 -d 0 -p ack -e 40 -c 0 -i 41 -a 0 -x {5.0 0.0 17 ------- null}
h -t 1.225724 -s 0 -d 6 -p tcp -e 1040 -c 0 -i 56 -a 0 -x {0.0 5.0 22 ------- null}
+ -t 1.227484 -s 0 -d 6 -p tcp -e 1040 -c 0 -i 48 -a 0 -x {0.0 5.0 14 ------- null}
+ -t 1.227484 -s 0 -d 6 -p tcp -e 1040 -c 0 -i 49 -a 0 -x {0.0 5.0 15 ------- null}
r -t 1.228764 -s 6 -d 0 -p ack -e 40 -c 0 -i 42 -a 0 -x {5.0 0.0 18 ------- null}
h -t 1.228764 -s 0 -d 6 -p tcp -e 1040 -c 0 -i 57 -a 0 -x {0.0 5.0 23 ------- null}
h -t 1.228764 -s 0 -d 6 -p tcp -e 1040 -c 0 -i 58 -a 0 -x {0.0 5.0 24 ------- null}
+ -t 1.230524 -s 0 -d 6 -p tcp -e 1040 -c 0 -i 50 -a 0 -x {0.0 5.0 16 ------- null}
+ -t 1.230524 -s 0 -d 6 -p tcp -e 1040 -c 0 -i 51 -a 0 -x {0.0 5.0 17 ------- null}
r -t 1.231804 -s 6 -d 0 -p ack -e 40 -c 0 -i 43 -a 0 -x {5.0 0.0 18 ------- null}
h -t 1.231804 -s 0 -d 6 -p tcp -e 1040 -c 0 -i 59 -a 0 -x {0.0 5.0 25 ------- null}
+ -t 1.233564 -s 0 -d 6 -p tcp -e 1040 -c 0 -i 52 -a 0 -x {0.0 5.0 18 ------- null}
+ -t 1.236604 -s 0 -d 6 -p tcp -e 1040 -c 0 -i 53 -a 0 -x {0.0 5.0 19 ------- null}
+ -t 1.239644 -s 0 -d 6 -p tcp -e 1040 -c 0 -i 54 -a 0 -x {0.0 5.0 20 ------- null}
+ -t 1.242684 -s 0 -d 6 -p tcp -e 1040 -c 0 -i 55 -a 0 -x {0.0 5.0 21 ------- null}
+ -t 1.245724 -s 0 -d 6 -p tcp -e 1040 -c 0 -i 56 -a 0 -x {0.0 5.0 22 ------- null}
h -t 1.247092 -s 1 -d 6 -p tcp -e 1040 -c 0 -i 60 -a 0 -x {1.0 5.1 1 ---A--- null}
+ -t 1.248764 -s 0 -d 6 -p tcp -e 1040 -c 0 -i 57 -a 0 -x {0.0 5.0 23 ------- null}
+ -t 1.248764 -s 0 -d 6 -p tcp -e 1040 -c 0 -i 58 -a 0 -x {0.0 5.0 24 ------- null}
+ -t 1.251804 -s 0 -d 6 -p tcp -e 1040 -c 0 -i 59 -a 0 -x {0.0 5.0 25 ------- null}
- -t 1.264044 -s 0 -d 6 -p tcp -e 1040 -c 0 -i 45 -a 0 -x {0.0 5.0 11 ------- null}
h -t 1.264044 -s 0 -d 6 -p tcp -e 1040 -c 0 -i 45 -a 0 -x {0.0 5.0 -1 ------- null}
+ -t 1.267092 -s 1 -d 6 -p tcp -e 1040 -c 0 -i 60 -a 0 -x {1.0 5.1 1 ---A--- null}
r -t 1.283568 -s 6 -d 5 -p tcp -e 1040 -c 0 -i 44 -a 0 -x {0.0 5.0 10 ------- null}
h -t 1.283568 -s 5 -d 6 -p ack -e 40 -c 0 -i 61 -a 0 -x {5.0 0.0 18 ------- null}
+ -t 1.303568 -s 5 -d 6 -p ack -e 40 -c 0 -i 61 -a 0 -x {5.0 0.0 18 ------- null}
- -t 1.303568 -s 5 -d 6 -p ack -e 40 -c 0 -i 61 -a 0 -x {5.0 0.0 18 ------- null}
h -t 1.303568 -s 5 -d 6 -p ack -e 40 -c 0 -i 61 -a 0 -x {5.0 0.0 -1 ------- null}
- -t 1.306684 -s 0 -d 6 -p tcp -e 1040 -c 0 -i 46 -a 0 -x {0.0 5.0 12 ------- null}
h -t 1.306684 -s 0 -d 6 -p tcp -e 1040 -c 0 -i 46 -a 0 -x {0.0 5.0 -1 ------- null}
r -t 1.326208 -s 6 -d 5 -p tcp -e 1040 -c 0 -i 45 -a 0 -x {0.0 5.0 11 ------- null}
h -t 1.326208 -s 5 -d 6 -p ack -e 40 -c 0 -i 62 -a 0 -x {5.0 0.0 18 ------- null}
r -t 1.3331 -s 6 -d 0 -p ack -e 40 -c 0 -i 61 -a 0 -x {5.0 0.0 18 ------- null}
h -t 1.3331 -s 0 -d 6 -p tcp -e 1040 -c 0 -i 63 -a 0 -x {0.0 5.0 26 ------- null}
+ -t 1.346208 -s 5 -d 6 -p ack -e 40 -c 0 -i 62 -a 0 -x {5.0 0.0 18 ------- null}
- -t 1.346208 -s 5 -d 6 -p ack -e 40 -c 0 -i 62 -a 0 -x {5.0 0.0 18 ------- null}
h -t 1.346208 -s 5 -d 6 -p ack -e 40 -c 0 -i 62 -a 0 -x {5.0 0.0 -1 ------- null}
+ -t 1.3531 -s 0 -d 6 -p tcp -e 1040 -c 0 -i 63 -a 0 -x {0.0 5.0 26 ------- null}
- -t 1.35622 -s 0 -d 6 -p tcp -e 1040 -c 0 -i 47 -a 0 -x {0.0 5.0 13 ------- null}
h -t 1.35622 -s 0 -d 6 -p tcp -e 1040 -c 0 -i 47 -a 0 -x {0.0 5.0 -1 ------- null}
r -t 1.375744 -s 6 -d 5 -p tcp -e 1040 -c 0 -i 46 -a 0 -x {0.0 5.0 12 ------- null}
h -t 1.375744 -s 5 -d 6 -p ack -e 40 -c 0 -i 64 -a 0 -x {5.0 0.0 18 ------- null}
+ -t 1.395744 -s 5 -d 6 -p ack -e 40 -c 0 -i 64 -a 0 -x {5.0 0.0 18 ------- null}
- -t 1.408476 -s 0 -d 6 -p tcp -e 1040 -c 0 -i 48 -a 0 -x {0.0 5.0 14 ------- null}
h -t 1.408476 -s 0 -d 6 -p tcp -e 1040 -c 0 -i 48 -a 0 -x {0.0 5.0 -1 ------- null}
r -t 1.428 -s 6 -d 5 -p tcp -e 1040 -c 0 -i 47 -a 0 -x {0.0 5.0 13 ------- null}
h -t 1.428 -s 5 -d 6 -p ack -e 40 -c 0 -i 65 -a 0 -x {5.0 0.0 18 ------- null}
+ -t 1.448 -s 5 -d 6 -p ack -e 40 -c 0 -i 65 -a 0 -x {5.0 0.0 18 ------- null}
- -t 1.454324 -s 0 -d 6 -p tcp -e 1040 -c 0 -i 49 -a 0 -x {0.0 5.0 15 ------- null}
h -t 1.454324 -s 0 -d 6 -p tcp -e 1040 -c 0 -i 49 -a 0 -x {0.0 5.0 -1 ------- null}
r -t 1.473848 -s 6 -d 5 -p tcp -e 1040 -c 0 -i 48 -a 0 -x {0.0 5.0 14 ------- null}
h -t 1.473848 -s 5 -d 6 -p ack -e 40 -c 0 -i 66 -a 0 -x {5.0 0.0 18 ------- null}
+ -t 1.493848 -s 5 -d 6 -p ack -e 40 -c 0 -i 66 -a 0 -x {5.0 0.0 18 ------- null}
- -t 1.500172 -s 0 -d 6 -p tcp -e 1040 -c 0 -i 50 -a 0 -x {0.0 5.0 16 ------- null}
h -t 1.500172 -s 0 -d 6 -p tcp -e 1040 -c 0 -i 50 -a 0 -x {0.0 5.0 -1 ------- null}
r -t 1.519696 -s 6 -d 5 -p tcp -e 1040 -c 0 -i 49 -a 0 -x {0.0 5.0 15 ------- null}
h -t 1.519696 -s 5 -d 6 -p ack -e 40 -c 0 -i 67 -a 0 -x {5.0 0.0 18 ------- null}
+ -t 1.539696 -s 5 -d 6 -p ack -e 40 -c 0 -i 67 -a 0 -x {5.0 0.0 18 ------- null}
- -t 1.542812 -s 0 -d 6 -p tcp -e 1040 -c 0 -i 51 -a 0 -x {0.0 5.0 17 ------- null}
h -t 1.542812 -s 0 -d 6 -p tcp -e 1040 -c 0 -i 51 -a 0 -x {0.0 5.0 -1 ------- null}
r -t 1.562336 -s 6 -d 5 -p tcp -e 1040 -c 0 -i 50 -a 0 -x {0.0 5.0 16 ------- null}
h -t 1.562336 -s 5 -d 6 -p ack -e 40 -c 0 -i 68 -a 0 -x {5.0 0.0 18 ------- null}
+ -t 1.582336 -s 5 -d 6 -p ack -e 40 -c 0 -i 68 -a 0 -x {5.0 0.0 18 ------- null}
- -t 1.5861 -s 0 -d 6 -p tcp -e 1040 -c 0 -i 52 -a 0 -x {0.0 5.0 18 ------- null}
h -t 1.5861 -s 0 -d 6 -p tcp -e 1040 -c 0 -i 52 -a 0 -x {0.0 5.0 -1 ------- null}
r -t 1.605624 -s 6 -d 5 -p tcp -e 1040 -c 0 -i 51 -a 0 -x {0.0 5.0 17 ------- null}
h -t 1.605624 -s 5 -d 6 -p ack -e 40 -c 0 -i 69 -a 0 -x {5.0 0.0 18 ------- null}
+ -t 1.625624 -s 5 -d 6 -p ack -e 40 -c 0 -i 69 -a 0 -x {5.0 0.0 18 ------- null}
- -t 1.62874 -s 0 -d 6 -p tcp -e 1040 -c 0 -i 53 -a 0 -x {0.0 5.0 19 ------- null}
h -t 1.62874 -s 0 -d 6 -p tcp -e 1040 -c 0 -i 53 -a 0 -x {0.0 5.0 -1 ------- null}
r -t 1.648264 -s 6 -d 5 -p tcp -e 1040 -c 0 -i 52 -a 0 -x {0.0 5.0 18 ------- null}
h -t 1.648264 -s 5 -d 6 -p ack -e 40 -c 0 -i 70 -a 0 -x {5.0 0.0 18 ------- null}
+ -t 1.668264 -s 5 -d 6 -p ack -e 40 -c 0 -i 70 -a 0 -x {5.0 0.0 18 ------- null}
- -t 1.672028 -s 0 -d 6 -p tcp -e 1040 -c 0 -i 54 -a 0 -x {0.0 5.0 20 ------- null}
h -t 1.672028 -s 0 -d 6 -p tcp -e 1040 -c 0 -i 54 -a 0 -x {0.0 5.0 -1 ------- null}
r -t 1.691552 -s 6 -d 5 -p tcp -e 1040 -c 0 -i 53 -a 0 -x {0.0 5.0 19 ------- null}
h -t 1.691552 -s 5 -d 6 -p ack -e 40 -c 0 -i 71 -a 0 -x {5.0 0.0 19 ------- null}
+ -t 1.711552 -s 5 -d 6 -p ack -e 40 -c 0 -i 71 -a 0 -x {5.0 0.0 19 ------- null}
- -t 1.714668 -s 0 -d 6 -p tcp -e 1040 -c 0 -i 55 -a 0 -x {0.0 5.0 21 ------- null}
h -t 1.714668 -s 0 -d 6 -p tcp -e 1040 -c 0 -i 55 -a 0 -x {0.0 5.0 -1 ------- null}
r -t 1.734192 -s 6 -d 5 -p tcp -e 1040 -c 0 -i 54 -a 0 -x {0.0 5.0 20 ------- null}
h -t 1.734192 -s 5 -d 6 -p ack -e 40 -c 0 -i 72 -a 0 -x {5.0 0.0 20 ------- null}
+ -t 1.754192 -s 5 -d 6 -p ack -e 40 -c 0 -i 72 -a 0 -x {5.0 0.0 20 ------- null}
- -t 1.757308 -s 0 -d 6 -p tcp -e 1040 -c 0 -i 56 -a 0 -x {0.0 5.0 22 ------- null}
h -t 1.757308 -s 0 -d 6 -p tcp -e 1040 -c 0 -i 56 -a 0 -x {0.0 5.0 -1 ------- null}
r -t 1.776832 -s 6 -d 5 -p tcp -e 1040 -c 0 -i 55 -a 0 -x {0.0 5.0 21 ------- null}
h -t 1.776832 -s 5 -d 6 -p ack -e 40 -c 0 -i 73 -a 0 -x {5.0 0.0 21 ------- null}
+ -t 1.796832 -s 5 -d 6 -p ack -e 40 -c 0 -i 73 -a 0 -x {5.0 0.0 21 ------- null}
- -t 1.799948 -s 0 -d 6 -p tcp -e 1040 -c 0 -i 57 -a 0 -x {0.0 5.0 23 ------- null}
h -t 1.799948 -s 0 -d 6 -p tcp -e 1040 -c 0 -i 57 -a 0 -x {0.0 5.0 -1 ------- null}
r -t 1.819472 -s 6 -d 5 -p tcp -e 1040 -c 0 -i 56 -a 0 -x {0.0 5.0 22 ------- null}
h -t 1.819472 -s 5 -d 6 -p ack -e 40 -c 0 -i 74 -a 0 -x {5.0 0.0 22 ------- null}
+ -t 1.839472 -s 5 -d 6 -p ack -e 40 -c 0 -i 74 -a 0 -x {5.0 0.0 22 ------- null}
- -t 1.842588 -s 0 -d 6 -p tcp -e 1040 -c 0 -i 58 -a 0 -x {0.0 5.0 24 ------- null}
h -t 1.842588 -s 0 -d 6 -p tcp -e 1040 -c 0 -i 58 -a 0 -x {0.0 5.0 -1 ------- null}
r -t 1.862112 -s 6 -d 5 -p tcp -e 1040 -c 0 -i 57 -a 0 -x {0.0 5.0 23 ------- null}
h -t 1.862112 -s 5 -d 6 -p ack -e 40 -c 0 -i 75 -a 0 -x {5.0 0.0 23 ------- null}
+ -t 1.882112 -s 5 -d 6 -p ack -e 40 -c 0 -i 75 -a 0 -x {5.0 0.0 23 ------- null}
- -t 1.885228 -s 0 -d 6 -p tcp -e 1040 -c 0 -i 59 -a 0 -x {0.0 5.0 25 ------- null}
h -t 1.885228 -s 0 -d 6 -p tcp -e 1040 -c 0 -i 59 -a 0 -x {0.0 5.0 -1 ------- null}
r -t 1.904752 -s 6 -d 5 -p tcp -e 1040 -c 0 -i 58 -a 0 -x {0.0 5.0 24 ------- null}
h -t 1.904752 -s 5 -d 6 -p ack -e 40 -c 0 -i 76 -a 0 -x {5.0 0.0 24 ------- null}
h -t 1.908764 -s 0 -d 6 -p tcp -e 1040 -c 0 -i 77 -a 0 -x {0.0 5.0 19 ---A--- null}
+ -t 1.924752 -s 5 -d 6 -p ack -e 40 -c 0 -i 76 -a 0 -x {5.0 0.0 24 ------- null}
+ -t 1.928764 -s 0 -d 6 -p tcp -e 1040 -c 0 -i 77 -a 0 -x {0.0 5.0 19 ---A--- null}
- -t 1.931076 -s 0 -d 6 -p tcp -e 1040 -c 0 -i 63 -a 0 -x {0.0 5.0 26 ------- null}
h -t 1.931076 -s 0 -d 6 -p tcp -e 1040 -c 0 -i 63 -a 0 -x {0.0 5.0 -1 ------- null}
r -t 1.9506 -s 6 -d 5 -p tcp -e 1040 -c 0 -i 59 -a 0 -x {0.0 5.0 25 ------- null}
h -t 1.9506 -s 5 -d 6 -p ack -e 40 -c 0 -i 78 -a 0 -x {5.0 0.0 25 ------- null}
+ -t 1.9706 -s 5 -d 6 -p ack -e 40 -c 0 -i 78 -a 0 -x {5.0 0.0 25 ------- null}
- -t 1.973716 -s 0 -d 6 -p tcp -e 1040 -c 0 -i 77 -a 0 -x {0.0 5.0 19 ---A--- null}
h -t 1.973716 -s 0 -d 6 -p tcp -e 1040 -c 0 -i 77 -a 0 -x {0.0 5.0 -1 ---A--- null}
r -t 1.99324 -s 6 -d 5 -p tcp -e 1040 -c 0 -i 63 -a 0 -x {0.0 5.0 26 ------- null}
h -t 1.99324 -s 5 -d 6 -p ack -e 40 -c 0 -i 79 -a 0 -x {5.0 0.0 26 ------- null}
+ -t 2.01324 -s 5 -d 6 -p ack -e 40 -c 0 -i 79 -a 0 -x {5.0 0.0 26 ------- null}
r -t 2.03588 -s 6 -d 5 -p tcp -e 1040 -c 0 -i 77 -a 0 -x {0.0 5.0 19 ---A--- null}
h -t 2.03588 -s 5 -d 6 -p ack -e 40 -c 0 -i 80 -a 0 -x {5.0 0.0 26 ------- null}
+ -t 2.05588 -s 5 -d 6 -p ack -e 40 -c 0 -i 80 -a 0 -x {5.0 0.0 26 ------- null}
- -t 2.362512 -s 5 -d 6 -p ack -e 40 -c 0 -i 64 -a 0 -x {5.0 0.0 18 ------- null}
h -t 2.362512 -s 5 -d 6 -p ack -e 40 -c 0 -i 64 -a 0 -x {5.0 0.0 -1 ------- null}
- -t 2.365552 -s 5 -d 6 -p ack -e 40 -c 0 -i 65 -a 0 -x {5.0 0.0 18 ------- null}
h -t 2.365552 -s 5 -d 6 -p ack -e 40 -c 0 -i 65 -a 0 -x {5.0 0.0 -1 ------- null}
- -t 2.368592 -s 5 -d 6 -p ack -e 40 -c 0 -i 66 -a 0 -x {5.0 0.0 18 ------- null}
h -t 2.368592 -s 5 -d 6 -p ack -e 40 -c 0 -i 66 -a 0 -x {5.0 0.0 -1 ------- null}
- -t 2.371632 -s 5 -d 6 -p ack -e 40 -c 0 -i 67 -a 0 -x {5.0 0.0 18 ------- null}
h -t 2.371632 -s 5 -d 6 -p ack -e 40 -c 0 -i 67 -a 0 -x {5.0 0.0 -1 ------- null}