n -t 0 -s 0 -S DLABEL -l "node 0" -L ""
n -t 0 -s 1 -S DLABEL -l "node 1" -L ""
n -t 0 -s 2 -S DLABEL -l "node 2" -L ""
n -t 0 -s 3 -S DLABEL -l "node 3" -L ""
n -t 0 -s 4 -S DLABEL -l "node 4" -L ""
n -t 0 -s 5 -S DLABEL -l "node 5" -L ""
n -t 0 -s 6 -S DLABEL -l "node 6" -L ""
V -t * -v 1.0a5 -a 0
A -t * -n 1 -p 0 -o 0x7fffffff -c 30 -a 1
A -t * -h 1 -m 1073741823 -s 0
c -t * -i 1 -n green
n -t * -a 4 -s 4 -S UP -v circle -c black -i black
n -t * -a 0 -s 0 -S UP -v circle -c black -i black
n -t * -a 5 -s 5 -S UP -v circle -c black -i black
n -t * -a 1 -s 1 -S UP -v circle -c black -i black
n -t * -a 6 -s 6 -S UP -v circle -c black -i black
n -t * -a 2 -s 2 -S UP -v circle -c black -i black
n -t * -a 3 -s 3 -S UP -v circle -c black -i black
l -t * -s 0 -d 1 -S UP -r 1500000 -D 0.01 -c black -o left-down
l -t * -s 1 -d 2 -S UP -r 1500000 -D 0.01 -c black -o left-down
l -t * -s 2 -d 3 -S UP -r 1500000 -D 0.01 -c black -o right-down
l -t * -s 3 -d 4 -S UP -r 1500000 -D 0.01 -c black -o right
l -t * -s 4 -d 5 -S UP -r 1500000 -D 0.01 -c black -o right-up
l -t * -s 5 -d 6 -S UP -r 1500000 -D 0.01 -c black -o left-up
l -t * -s 6 -d 0 -S UP -r 1500000 -D 0.01 -c black -o left-up
+ -t 0.000169788487334637 -s 0 -d 1 -p rtProtoDV -e 7 -c 0 -i 0 -a 0 -x {0.2 1.1 -1 ------- null}
- -t 0.000169788487334637 -s 0 -d 1 -p rtProtoDV -e 7 -c 0 -i 0 -a 0 -x {0.2 1.1 -1 ------- null}
h -t 0.000169788487334637 -s 0 -d 1 -p rtProtoDV -e 7 -c 0 -i 0 -a 0 -x {0.2 1.1 -1 ------- null}
+ -t 0.000169788487334637 -s 0 -d 6 -p rtProtoDV -e 7 -c 0 -i 1 -a 0 -x {0.2 6.1 -1 ------- null}
- -t 0.000169788487334637 -s 0 -d 6 -p rtProtoDV -e 7 -c 0 -i 1 -a 0 -x {0.2 6.1 -1 ------- null}
h -t 0.000169788487334637 -s 0 -d 6 -p rtProtoDV -e 7 -c 0 -i 1 -a 0 -x {0.2 6.1 -1 ------- null}
+ -t 0.00710233021858257 -s 2 -d 1 -p rtProtoDV -e 7 -c 0 -i 2 -a 0 -x {2.1 1.1 -1 ------- null}
- -t 0.00710233021858257 -s 2 -d 1 -p rtProtoDV -e 7 -c 0 -i 2 -a 0 -x {2.1 1.1 -1 ------- null}
h -t 0.00710233021858257 -s 2 -d 1 -p rtProtoDV -e 7 -c 0 -i 2 -a 0 -x {2.1 1.1 -1 ------- null}
+ -t 0.00710233021858257 -s 2 -d 3 -p rtProtoDV -e 7 -c 0 -i 3 -a 0 -x {2.1 3.2 -1 ------- null}
- -t 0.00710233021858257 -s 2 -d 3 -p rtProtoDV -e 7 -c 0 -i 3 -a 0 -x {2.1 3.2 -1 ------- null}
h -t 0.00710233021858257 -s 2 -d 3 -p rtProtoDV -e 7 -c 0 -i 3 -a 0 -x {2.1 3.2 -1 ------- null}
r -t 0.010207121820668 -s 0 -d 1 -p rtProtoDV -e 7 -c 0 -i 0 -a 0 -x {0.2 1.1 -1 ------- null}
+ -t 0.010207121820668 -s 1 -d 0 -p rtProtoDV -e 7 -c 0 -i 4 -a 0 -x {1.1 0.2 -1 ------- null}
- -t 0.010207121820668 -s 1 -d 0 -p rtProtoDV -e 7 -c 0 -i 4 -a 0 -x {1.1 0.2 -1 ------- null}
h -t 0.010207121820668 -s 1 -d 0 -p rtProtoDV -e 7 -c 0 -i 4 -a 0 -x {1.1 0.2 -1 ------- null}
+ -t 0.010207121820668 -s 1 -d 2 -p rtProtoDV -e 7 -c 0 -i 5 -a 0 -x {1.1 2.1 -1 ------- null}
- -t 0.010207121820668 -s 1 -d 2 -p rtProtoDV -e 7 -c 0 -i 5 -a 0 -x {1.1 2.1 -1 ------- null}
h -t 0.010207121820668 -s 1 -d 2 -p rtProtoDV -e 7 -c 0 -i 5 -a 0 -x {1.1 2.1 -1 ------- null}
r -t 0.010207121820668 -s 0 -d 6 -p rtProtoDV -e 7 -c 0 -i 1 -a 0 -x {0.2 6.1 -1 ------- null}
+ -t 0.010207121820668 -s 6 -d 0 -p rtProtoDV -e 7 -c 0 -i 6 -a 0 -x {6.1 0.2 -1 ------- null}
- -t 0.010207121820668 -s 6 -d 0 -p rtProtoDV -e 7 -c 0 -i 6 -a 0 -x {6.1 0.2 -1 ------- null}
h -t 0.010207121820668 -s 6 -d 0 -p rtProtoDV -e 7 -c 0 -i 6 -a 0 -x {6.1 0.2 -1 ------- null}
+ -t 0.010207121820668 -s 6 -d 5 -p rtProtoDV -e 7 -c 0 -i 7 -a 0 -x {6.1 5.1 -1 ------- null}
- -t 0.010207121820668 -s 6 -d 5 -p rtProtoDV -e 7 -c 0 -i 7 -a 0 -x {6.1 5.1 -1 ------- null}
h -t 0.010207121820668 -s 6 -d 5 -p rtProtoDV -e 7 -c 0 -i 7 -a 0 -x {6.1 5.1 -1 ------- null}
r -t 0.0171396635519159 -s 2 -d 1 -p rtProtoDV -e 7 -c 0 -i 2 -a 0 -x {2.1 1.1 -1 ------- null}
+ -t 0.0171396635519159 -s 1 -d 0 -p rtProtoDV -e 7 -c 0 -i 8 -a 0 -x {1.1 0.2 -1 ------- null}
- -t 0.0171396635519159 -s 1 -d 0 -p rtProtoDV -e 7 -c 0 -i 8 -a 0 -x {1.1 0.2 -1 ------- null}
h -t 0.0171396635519159 -s 1 -d 0 -p rtProtoDV -e 7 -c 0 -i 8 -a 0 -x {1.1 0.2 -1 ------- null}
+ -t 0.0171396635519159 -s 1 -d 2 -p rtProtoDV -e 7 -c 0 -i 9 -a 0 -x {1.1 2.1 -1 ------- null}
- -t 0.0171396635519159 -s 1 -d 2 -p rtProtoDV -e 7 -c 0 -i 9 -a 0 -x {1.1 2.1 -1 ------- null}
h -t 0.0171396635519159 -s 1 -d 2 -p rtProtoDV -e 7 -c 0 -i 9 -a 0 -x {1.1 2.1 -1 ------- null}
r -t 0.0171396635519159 -s 2 -d 3 -p rtProtoDV -e 7 -c 0 -i 3 -a 0 -x {2.1 3.2 -1 ------- null}
+ -t 0.0171396635519159 -s 3 -d 2 -p rtProtoDV -e 7 -c 0 -i 10 -a 0 -x {3.2 2.1 -1 ------- null}
- -t 0.0171396635519159 -s 3 -d 2 -p rtProtoDV -e 7 -c 0 -i 10 -a 0 -x {3.2 2.1 -1 ------- null}
h -t 0.0171396635519159 -s 3 -d 2 -p rtProtoDV -e 7 -c 0 -i 10 -a 0 -x {3.2 2.1 -1 ------- null}
+ -t 0.0171396635519159 -s 3 -d 4 -p rtProtoDV -e 7 -c 0 -i 11 -a 0 -x {3.2 4.1 -1 ------- null}
- -t 0.0171396635519159 -s 3 -d 4 -p rtProtoDV -e 7 -c 0 -i 11 -a 0 -x {3.2 4.1 -1 ------- null}
h -t 0.0171396635519159 -s 3 -d 4 -p rtProtoDV -e 7 -c 0 -i 11 -a 0 -x {3.2 4.1 -1 ------- null}
r -t 0.0202444551540013 -s 1 -d 0 -p rtProtoDV -e 7 -c 0 -i 4 -a 0 -x {1.1 0.2 -1 ------- null}
+ -t 0.0202444551540013 -s 0 -d 1 -p rtProtoDV -e 7 -c 0 -i 12 -a 0 -x {0.2 1.1 -1 ------- null}
- -t 0.0202444551540013 -s 0 -d 1 -p rtProtoDV -e 7 -c 0 -i 12 -a 0 -x {0.2 1.1 -1 ------- null}
h -t 0.0202444551540013 -s 0 -d 1 -p rtProtoDV -e 7 -c 0 -i 12 -a 0 -x {0.2 1.1 -1 ------- null}
+ -t 0.0202444551540013 -s 0 -d 6 -p rtProtoDV -e 7 -c 0 -i 13 -a 0 -x {0.2 6.1 -1 ------- null}
- -t 0.0202444551540013 -s 0 -d 6 -p rtProtoDV -e 7 -c 0 -i 13 -a 0 -x {0.2 6.1 -1 ------- null}
h -t 0.0202444551540013 -s 0 -d 6 -p rtProtoDV -e 7 -c 0 -i 13 -a 0 -x {0.2 6.1 -1 ------- null}
r -t 0.0202444551540013 -s 1 -d 2 -p rtProtoDV -e 7 -c 0 -i 5 -a 0 -x {1.1 2.1 -1 ------- null}
+ -t 0.0202444551540013 -s 2 -d 1 -p rtProtoDV -e 7 -c 0 -i 14 -a 0 -x {2.1 1.1 -1 ------- null}
- -t 0.0202444551540013 -s 2 -d 1 -p rtProtoDV -e 7 -c 0 -i 14 -a 0 -x {2.1 1.1 -1 ------- null}
h -t 0.0202444551540013 -s 2 -d 1 -p rtProtoDV -e 7 -c 0 -i 14 -a 0 -x {2.1 1.1 -1 ------- null}
+ -t 0.0202444551540013 -s 2 -d 3 -p rtProtoDV -e 7 -c 0 -i 15 -a 0 -x {2.1 3.2 -1 ------- null}
- -t 0.0202444551540013 -s 2 -d 3 -p rtProtoDV -e 7 -c 0 -i 15 -a 0 -x {2.1 3.2 -1 ------- null}
h -t 0.0202444551540013 -s 2 -d 3 -p rtProtoDV -e 7 -c 0 -i 15 -a 0 -x {2.1 3.2 -1 ------- null}
r -t 0.0202444551540013 -s 6 -d 0 -p rtProtoDV -e 7 -c 0 -i 6 -a 0 -x {6.1 0.2 -1 ------- null}
+ -t 0.0202444551540013 -s 0 -d 1 -p rtProtoDV -e 7 -c 0 -i 16 -a 0 -x {0.2 1.1 -1 ------- null}
+ -t 0.0202444551540013 -s 0 -d 6 -p rtProtoDV -e 7 -c 0 -i 17 -a 0 -x {0.2 6.1 -1 ------- null}
r -t 0.0202444551540013 -s 6 -d 5 -p rtProtoDV -e 7 -c 0 -i 7 -a 0 -x {6.1 5.1 -1 ------- null}
+ -t 0.0202444551540013 -s 5 -d 4 -p rtProtoDV -e 7 -c 0 -i 18 -a 0 -x {5.1 4.1 -1 ------- null}
- -t 0.0202444551540013 -s 5 -d 4 -p rtProtoDV -e 7 -c 0 -i 18 -a 0 -x {5.1 4.1 -1 ------- null}
h -t 0.0202444551540013 -s 5 -d 4 -p rtProtoDV -e 7 -c 0 -i 18 -a 0 -x {5.1 4.1 -1 ------- null}
+ -t 0.0202444551540013 -s 5 -d 6 -p rtProtoDV -e 7 -c 0 -i 19 -a 0 -x {5.1 6.1 -1 ------- null}
- -t 0.0202444551540013 -s 5 -d 6 -p rtProtoDV -e 7 -c 0 -i 19 -a 0 -x {5.1 6.1 -1 ------- null}
h -t 0.0202444551540013 -s 5 -d 6 -p rtProtoDV -e 7 -c 0 -i 19 -a 0 -x {5.1 6.1 -1 ------- null}
- -t 0.0202817884873346 -s 0 -d 1 -p rtProtoDV -e 7 -c 0 -i 16 -a 0 -x {0.2 1.1 -1 ------- null}
h -t 0.0202817884873346 -s 0 -d 1 -p rtProtoDV -e 7 -c 0 -i 16 -a 0 -x {0.2 1.1 -1 ------- null}
- -t 0.0202817884873346 -s 0 -d 6 -p rtProtoDV -e 7 -c 0 -i 17 -a 0 -x {0.2 6.1 -1 ------- null}
h -t 0.0202817884873346 -s 0 -d 6 -p rtProtoDV -e 7 -c 0 -i 17 -a 0 -x {0.2 6.1 -1 ------- null}
r -t 0.0271769968852492 -s 1 -d 0 -p rtProtoDV -e 7 -c 0 -i 8 -a 0 -x {1.1 0.2 -1 ------- null}
+ -t 0.0271769968852492 -s 0 -d 1 -p rtProtoDV -e 7 -c 0 -i 20 -a 0 -x {0.2 1.1 -1 ------- null}
- -t 0.0271769968852492 -s 0 -d 1 -p rtProtoDV -e 7 -c 0 -i 20 -a 0 -x {0.2 1.1 -1 ------- null}
h -t 0.0271769968852492 -s 0 -d 1 -p rtProtoDV -e 7 -c 0 -i 20 -a 0 -x {0.2 1.1 -1 ------- null}
+ -t 0.0271769968852492 -s 0 -d 6 -p rtProtoDV -e 7 -c 0 -i 21 -a 0 -x {0.2 6.1 -1 ------- null}
- -t 0.0271769968852492 -s 0 -d 6 -p rtProtoDV -e 7 -c 0 -i 21 -a 0 -x {0.2 6.1 -1 ------- null}
h -t 0.0271769968852492 -s 0 -d 6 -p rtProtoDV -e 7 -c 0 -i 21 -a 0 -x {0.2 6.1 -1 ------- null}
r -t 0.0271769968852492 -s 1 -d 2 -p rtProtoDV -e 7 -c 0 -i 9 -a 0 -x {1.1 2.1 -1 ------- null}
r -t 0.0271769968852492 -s 3 -d 2 -p rtProtoDV -e 7 -c 0 -i 10 -a 0 -x {3.2 2.1 -1 ------- null}
+ -t 0.0271769968852492 -s 2 -d 1 -p rtProtoDV -e 7 -c 0 -i 22 -a 0 -x {2.1 1.1 -1 ------- null}
- -t 0.0271769968852492 -s 2 -d 1 -p rtProtoDV -e 7 -c 0 -i 22 -a 0 -x {2.1 1.1 -1 ------- null}
h -t 0.0271769968852492 -s 2 -d 1 -p rtProtoDV -e 7 -c 0 -i 22 -a 0 -x {2.1 1.1 -1 ------- null}
+ -t 0.0271769968852492 -s 2 -d 3 -p rtProtoDV -e 7 -c 0 -i 23 -a 0 -x {2.1 3.2 -1 ------- null}
- -t 0.0271769968852492 -s 2 -d 3 -p rtProtoDV -e 7 -c 0 -i 23 -a 0 -x {2.1 3.2 -1 ------- null}
h -t 0.0271769968852492 -s 2 -d 3 -p rtProtoDV -e 7 -c 0 -i 23 -a 0 -x {2.1 3.2 -1 ------- null}
r -t 0.0271769968852492 -s 3 -d 4 -p rtProtoDV -e 7 -c 0 -i 11 -a 0 -x {3.2 4.1 -1 ------- null}
+ -t 0.0271769968852492 -s 4 -d 3 -p rtProtoDV -e 7 -c 0 -i 24 -a 0 -x {4.1 3.2 -1 ------- null}
- -t 0.0271769968852492 -s 4 -d 3 -p rtProtoDV -e 7 -c 0 -i 24 -a 0 -x {4.1 3.2 -1 ------- null}
h -t 0.0271769968852492 -s 4 -d 3 -p rtProtoDV -e 7 -c 0 -i 24 -a 0 -x {4.1 3.2 -1 ------- null}
+ -t 0.0271769968852492 -s 4 -d 5 -p rtProtoDV -e 7 -c 0 -i 25 -a 0 -x {4.1 5.1 -1 ------- null}
- -t 0.0271769968852492 -s 4 -d 5 -p rtProtoDV -e 7 -c 0 -i 25 -a 0 -x {4.1 5.1 -1 ------- null}
h -t 0.0271769968852492 -s 4 -d 5 -p rtProtoDV -e 7 -c 0 -i 25 -a 0 -x {4.1 5.1 -1 ------- null}
r -t 0.0302817884873346 -s 0 -d 1 -p rtProtoDV -e 7 -c 0 -i 12 -a 0 -x {0.2 1.1 -1 ------- null}
r -t 0.0302817884873346 -s 0 -d 6 -p rtProtoDV -e 7 -c 0 -i 13 -a 0 -x {0.2 6.1 -1 ------- null}
+ -t 0.0302817884873346 -s 6 -d 0 -p rtProtoDV -e 7 -c 0 -i 26 -a 0 -x {6.1 0.2 -1 ------- null}
- -t 0.0302817884873346 -s 6 -d 0 -p rtProtoDV -e 7 -c 0 -i 26 -a 0 -x {6.1 0.2 -1 ------- null}
h -t 0.0302817884873346 -s 6 -d 0 -p rtProtoDV -e 7 -c 0 -i 26 -a 0 -x {6.1 0.2 -1 ------- null}
+ -t 0.0302817884873346 -s 6 -d 5 -p rtProtoDV -e 7 -c 0 -i 27 -a 0 -x {6.1 5.1 -1 ------- null}
- -t 0.0302817884873346 -s 6 -d 5 -p rtProtoDV -e 7 -c 0 -i 27 -a 0 -x {6.1 5.1 -1 ------- null}
h -t 0.0302817884873346 -s 6 -d 5 -p rtProtoDV -e 7 -c 0 -i 27 -a 0 -x {6.1 5.1 -1 ------- null}
r -t 0.0302817884873346 -s 2 -d 1 -p rtProtoDV -e 7 -c 0 -i 14 -a 0 -x {2.1 1.1 -1 ------- null}
r -t 0.0302817884873346 -s 2 -d 3 -p rtProtoDV -e 7 -c 0 -i 15 -a 0 -x {2.1 3.2 -1 ------- null}
+ -t 0.0302817884873346 -s 3 -d 2 -p rtProtoDV -e 7 -c 0 -i 28 -a 0 -x {3.2 2.1 -1 ------- null}
- -t 0.0302817884873346 -s 3 -d 2 -p rtProtoDV -e 7 -c 0 -i 28 -a 0 -x {3.2 2.1 -1 ------- null}
h -t 0.0302817884873346 -s 3 -d 2 -p rtProtoDV -e 7 -c 0 -i 28 -a 0 -x {3.2 2.1 -1 ------- null}
+ -t 0.0302817884873346 -s 3 -d 4 -p rtProtoDV -e 7 -c 0 -i 29 -a 0 -x {3.2 4.1 -1 ------- null}
- -t 0.0302817884873346 -s 3 -d 4 -p rtProtoDV -e 7 -c 0 -i 29 -a 0 -x {3.2 4.1 -1 ------- null}
h -t 0.0302817884873346 -s 3 -d 4 -p rtProtoDV -e 7 -c 0 -i 29 -a 0 -x {3.2 4.1 -1 ------- null}
r -t 0.0302817884873346 -s 5 -d 4 -p rtProtoDV -e 7 -c 0 -i 18 -a 0 -x {5.1 4.1 -1 ------- null}
+ -t 0.0302817884873346 -s 4 -d 3 -p rtProtoDV -e 7 -c 0 -i 30 -a 0 -x {4.1 3.2 -1 ------- null}
- -t 0.0302817884873346 -s 4 -d 3 -p rtProtoDV -e 7 -c 0 -i 30 -a 0 -x {4.1 3.2 -1 ------- null}
h -t 0.0302817884873346 -s 4 -d 3 -p rtProtoDV -e 7 -c 0 -i 30 -a 0 -x {4.1 3.2 -1 ------- null}
+ -t 0.0302817884873346 -s 4 -d 5 -p rtProtoDV -e 7 -c 0 -i 31 -a 0 -x {4.1 5.1 -1 ------- null}
- -t 0.0302817884873346 -s 4 -d 5 -p rtProtoDV -e 7 -c 0 -i 31 -a 0 -x {4.1 5.1 -1 ------- null}
h -t 0.0302817884873346 -s 4 -d 5 -p rtProtoDV -e 7 -c 0 -i 31 -a 0 -x {4.1 5.1 -1 ------- null}
r -t 0.0302817884873346 -s 5 -d 6 -p rtProtoDV -e 7 -c 0 -i 19 -a 0 -x {5.1 6.1 -1 ------- null}
+ -t 0.0302817884873346 -s 6 -d 0 -p rtProtoDV -e 7 -c 0 -i 32 -a 0 -x {6.1 0.2 -1 ------- null}
+ -t 0.0302817884873346 -s 6 -d 5 -p rtProtoDV -e 7 -c 0 -i 33 -a 0 -x {6.1 5.1 -1 ------- null}
r -t 0.030319121820668 -s 0 -d 1 -p rtProtoDV -e 7 -c 0 -i 16 -a 0 -x {0.2 1.1 -1 ------- null}
+ -t 0.030319121820668 -s 1 -d 0 -p rtProtoDV -e 7 -c 0 -i 34 -a 0 -x {1.1 0.2 -1 ------- null}
- -t 0.030319121820668 -s 1 -d 0 -p rtProtoDV -e 7 -c 0 -i 34 -a 0 -x {1.1 0.2 -1 ------- null}
h -t 0.030319121820668 -s 1 -d 0 -p rtProtoDV -e 7 -c 0 -i 34 -a 0 -x {1.1 0.2 -1 ------- null}
+ -t 0.030319121820668 -s 1 -d 2 -p rtProtoDV -e 7 -c 0 -i 35 -a 0 -x {1.1 2.1 -1 ------- null}
- -t 0.030319121820668 -s 1 -d 2 -p rtProtoDV -e 7 -c 0 -i 35 -a 0 -x {1.1 2.1 -1 ------- null}
h -t 0.030319121820668 -s 1 -d 2 -p rtProtoDV -e 7 -c 0 -i 35 -a 0 -x {1.1 2.1 -1 ------- null}
r -t 0.030319121820668 -s 0 -d 6 -p rtProtoDV -e 7 -c 0 -i 17 -a 0 -x {0.2 6.1 -1 ------- null}
- -t 0.030319121820668 -s 6 -d 0 -p rtProtoDV -e 7 -c 0 -i 32 -a 0 -x {6.1 0.2 -1 ------- null}
h -t 0.030319121820668 -s 6 -d 0 -p rtProtoDV -e 7 -c 0 -i 32 -a 0 -x {6.1 0.2 -1 ------- null}
- -t 0.030319121820668 -s 6 -d 5 -p rtProtoDV -e 7 -c 0 -i 33 -a 0 -x {6.1 5.1 -1 ------- null}
h -t 0.030319121820668 -s 6 -d 5 -p rtProtoDV -e 7 -c 0 -i 33 -a 0 -x {6.1 5.1 -1 ------- null}
r -t 0.0372143302185826 -s 0 -d 1 -p rtProtoDV -e 7 -c 0 -i 20 -a 0 -x {0.2 1.1 -1 ------- null}
r -t 0.0372143302185826 -s 0 -d 6 -p rtProtoDV -e 7 -c 0 -i 21 -a 0 -x {0.2 6.1 -1 ------- null}
+ -t 0.0372143302185826 -s 6 -d 0 -p rtProtoDV -e 7 -c 0 -i 36 -a 0 -x {6.1 0.2 -1 ------- null}
- -t 0.0372143302185826 -s 6 -d 0 -p rtProtoDV -e 7 -c 0 -i 36 -a 0 -x {6.1 0.2 -1 ------- null}
h -t 0.0372143302185826 -s 6 -d 0 -p rtProtoDV -e 7 -c 0 -i 36 -a 0 -x {6.1 0.2 -1 ------- null}
+ -t 0.0372143302185826 -s 6 -d 5 -p rtProtoDV -e 7 -c 0 -i 37 -a 0 -x {6.1 5.1 -1 ------- null}
- -t 0.0372143302185826 -s 6 -d 5 -p rtProtoDV -e 7 -c 0 -i 37 -a 0 -x {6.1 5.1 -1 ------- null}
h -t 0.0372143302185826 -s 6 -d 5 -p rtProtoDV -e 7 -c 0 -i 37 -a 0 -x {6.1 5.1 -1 ------- null}
r -t 0.0372143302185826 -s 2 -d 1 -p rtProtoDV -e 7 -c 0 -i 22 -a 0 -x {2.1 1.1 -1 ------- null}
+ -t 0.0372143302185826 -s 1 -d 0 -p rtProtoDV -e 7 -c 0 -i 38 -a 0 -x {1.1 0.2 -1 ------- null}
- -t 0.0372143302185826 -s 1 -d 0 -p rtProtoDV -e 7 -c 0 -i 38 -a 0 -x {1.1 0.2 -1 ------- null}
h -t 0.0372143302185826 -s 1 -d 0 -p rtProtoDV -e 7 -c 0 -i 38 -a 0 -x {1.1 0.2 -1 ------- null}
+ -t 0.0372143302185826 -s 1 -d 2 -p rtProtoDV -e 7 -c 0 -i 39 -a 0 -x {1.1 2.1 -1 ------- null}
- -t 0.0372143302185826 -s 1 -d 2 -p rtProtoDV -e 7 -c 0 -i 39 -a 0 -x {1.1 2.1 -1 ------- null}
h -t 0.0372143302185826 -s 1 -d 2 -p rtProtoDV -e 7 -c 0 -i 39 -a 0 -x {1.1 2.1 -1 ------- null}
r -t 0.0372143302185826 -s 2 -d 3 -p rtProtoDV -e 7 -c 0 -i 23 -a 0 -x {2.1 3.2 -1 ------- null}
r -t 0.0372143302185826 -s 4 -d 3 -p rtProtoDV -e 7 -c 0 -i 24 -a 0 -x {4.1 3.2 -1 ------- null}
+ -t 0.0372143302185826 -s 3 -d 2 -p rtProtoDV -e 7 -c 0 -i 40 -a 0 -x {3.2 2.1 -1 ------- null}
- -t 0.0372143302185826 -s 3 -d 2 -p rtProtoDV -e 7 -c 0 -i 40 -a 0 -x {3.2 2.1 -1 ------- null}
h -t 0.0372143302185826 -s 3 -d 2 -p rtProtoDV -e 7 -c 0 -i 40 -a 0 -x {3.2 2.1 -1 ------- null}
+ -t 0.0372143302185826 -s 3 -d 4 -p rtProtoDV -e 7 -c 0 -i 41 -a 0 -x {3.2 4.1 -1 ------- null}
- -t 0.0372143302185826 -s 3 -d 4 -p rtProtoDV -e 7 -c 0 -i 41 -a 0 -x {3.2 4.1 -1 ------- null}
h -t 0.0372143302185826 -s 3 -d 4 -p rtProtoDV -e 7 -c 0 -i 41 -a 0 -x {3.2 4.1 -1 ------- null}
r -t 0.0372143302185826 -s 4 -d 5 -p rtProtoDV -e 7 -c 0 -i 25 -a 0 -x {4.1 5.1 -1 ------- null}
+ -t 0.0372143302185826 -s 5 -d 4 -p rtProtoDV -e 7 -c 0 -i 42 -a 0 -x {5.1 4.1 -1 ------- null}
- -t 0.0372143302185826 -s 5 -d 4 -p rtProtoDV -e 7 -c 0 -i 42 -a 0 -x {5.1 4.1 -1 ------- null}
h -t 0.0372143302185826 -s 5 -d 4 -p rtProtoDV -e 7 -c 0 -i 42 -a 0 -x {5.1 4.1 -1 ------- null}
+ -t 0.0372143302185826 -s 5 -d 6 -p rtProtoDV -e 7 -c 0 -i 43 -a 0 -x {5.1 6.1 -1 ------- null}
- -t 0.0372143302185826 -s 5 -d 6 -p rtProtoDV -e 7 -c 0 -i 43 -a 0 -x {5.1 6.1 -1 ------- null}
h -t 0.0372143302185826 -s 5 -d 6 -p rtProtoDV -e 7 -c 0 -i 43 -a 0 -x {5.1 6.1 -1 ------- null}
r -t 0.040319121820668 -s 6 -d 0 -p rtProtoDV -e 7 -c 0 -i 26 -a 0 -x {6.1 0.2 -1 ------- null}
r -t 0.040319121820668 -s 6 -d 5 -p rtProtoDV -e 7 -c 0 -i 27 -a 0 -x {6.1 5.1 -1 ------- null}
r -t 0.040319121820668 -s 3 -d 2 -p rtProtoDV -e 7 -c 0 -i 28 -a 0 -x {3.2 2.1 -1 ------- null}
r -t 0.040319121820668 -s 3 -d 4 -p rtProtoDV -e 7 -c 0 -i 29 -a 0 -x {3.2 4.1 -1 ------- null}
r -t 0.040319121820668 -s 4 -d 3 -p rtProtoDV -e 7 -c 0 -i 30 -a 0 -x {4.1 3.2 -1 ------- null}
+ -t 0.040319121820668 -s 3 -d 2 -p rtProtoDV -e 7 -c 0 -i 44 -a 0 -x {3.2 2.1 -1 ------- null}
- -t 0.040319121820668 -s 3 -d 2 -p rtProtoDV -e 7 -c 0 -i 44 -a 0 -x {3.2 2.1 -1 ------- null}
h -t 0.040319121820668 -s 3 -d 2 -p rtProtoDV -e 7 -c 0 -i 44 -a 0 -x {3.2 2.1 -1 ------- null}
+ -t 0.040319121820668 -s 3 -d 4 -p rtProtoDV -e 7 -c 0 -i 45 -a 0 -x {3.2 4.1 -1 ------- null}
- -t 0.040319121820668 -s 3 -d 4 -p rtProtoDV -e 7 -c 0 -i 45 -a 0 -x {3.2 4.1 -1 ------- null}
h -t 0.040319121820668 -s 3 -d 4 -p rtProtoDV -e 7 -c 0 -i 45 -a 0 -x {3.2 4.1 -1 ------- null}
r -t 0.040319121820668 -s 4 -d 5 -p rtProtoDV -e 7 -c 0 -i 31 -a 0 -x {4.1 5.1 -1 ------- null}
r -t 0.0403564551540013 -s 1 -d 0 -p rtProtoDV -e 7 -c 0 -i 34 -a 0 -x {1.1 0.2 -1 ------- null}
r -t 0.0403564551540013 -s 1 -d 2 -p rtProtoDV -e 7 -c 0 -i 35 -a 0 -x {1.1 2.1 -1 ------- null}
+ -t 0.0403564551540013 -s 2 -d 1 -p rtProtoDV -e 7 -c 0 -i 46 -a 0 -x {2.1 1.1 -1 ------- null}
- -t 0.0403564551540013 -s 2 -d 1 -p rtProtoDV -e 7 -c 0 -i 46 -a 0 -x {2.1 1.1 -1 ------- null}
h -t 0.0403564551540013 -s 2 -d 1 -p rtProtoDV -e 7 -c 0 -i 46 -a 0 -x {2.1 1.1 -1 ------- null}
+ -t 0.0403564551540013 -s 2 -d 3 -p rtProtoDV -e 7 -c 0 -i 47 -a 0 -x {2.1 3.2 -1 ------- null}
- -t 0.0403564551540013 -s 2 -d 3 -p rtProtoDV -e 7 -c 0 -i 47 -a 0 -x {2.1 3.2 -1 ------- null}
h -t 0.0403564551540013 -s 2 -d 3 -p rtProtoDV -e 7 -c 0 -i 47 -a 0 -x {2.1 3.2 -1 ------- null}
r -t 0.0403564551540013 -s 6 -d 0 -p rtProtoDV -e 7 -c 0 -i 32 -a 0 -x {6.1 0.2 -1 ------- null}
+ -t 0.0403564551540013 -s 0 -d 1 -p rtProtoDV -e 7 -c 0 -i 48 -a 0 -x {0.2 1.1 -1 ------- null}
- -t 0.0403564551540013 -s 0 -d 1 -p rtProtoDV -e 7 -c 0 -i 48 -a 0 -x {0.2 1.1 -1 ------- null}
h -t 0.0403564551540013 -s 0 -d 1 -p rtProtoDV -e 7 -c 0 -i 48 -a 0 -x {0.2 1.1 -1 ------- null}
+ -t 0.0403564551540013 -s 0 -d 6 -p rtProtoDV -e 7 -c 0 -i 49 -a 0 -x {0.2 6.1 -1 ------- null}
- -t 0.0403564551540013 -s 0 -d 6 -p rtProtoDV -e 7 -c 0 -i 49 -a 0 -x {0.2 6.1 -1 ------- null}
h -t 0.0403564551540013 -s 0 -d 6 -p rtProtoDV -e 7 -c 0 -i 49 -a 0 -x {0.2 6.1 -1 ------- null}
r -t 0.0403564551540013 -s 6 -d 5 -p rtProtoDV -e 7 -c 0 -i 33 -a 0 -x {6.1 5.1 -1 ------- null}
+ -t 0.04406133552271 -s 3 -d 2 -p rtProtoDV -e 7 -c 0 -i 50 -a 0 -x {3.2 2.1 -1 ------- null}
- -t 0.04406133552271 -s 3 -d 2 -p rtProtoDV -e 7 -c 0 -i 50 -a 0 -x {3.2 2.1 -1 ------- null}
h -t 0.04406133552271 -s 3 -d 2 -p rtProtoDV -e 7 -c 0 -i 50 -a 0 -x {3.2 2.1 -1 ------- null}
+ -t 0.04406133552271 -s 3 -d 4 -p rtProtoDV -e 7 -c 0 -i 51 -a 0 -x {3.2 4.1 -1 ------- null}
- -t 0.04406133552271 -s 3 -d 4 -p rtProtoDV -e 7 -c 0 -i 51 -a 0 -x {3.2 4.1 -1 ------- null}
h -t 0.04406133552271 -s 3 -d 4 -p rtProtoDV -e 7 -c 0 -i 51 -a 0 -x {3.2 4.1 -1 ------- null}
r -t 0.0472516635519159 -s 6 -d 0 -p rtProtoDV -e 7 -c 0 -i 36 -a 0 -x {6.1 0.2 -1 ------- null}
r -t 0.0472516635519159 -s 6 -d 5 -p rtProtoDV -e 7 -c 0 -i 37 -a 0 -x {6.1 5.1 -1 ------- null}
r -t 0.0472516635519159 -s 1 -d 0 -p rtProtoDV -e 7 -c 0 -i 38 -a 0 -x {1.1 0.2 -1 ------- null}
r -t 0.0472516635519159 -s 1 -d 2 -p rtProtoDV -e 7 -c 0 -i 39 -a 0 -x {1.1 2.1 -1 ------- null}
r -t 0.0472516635519159 -s 3 -d 2 -p rtProtoDV -e 7 -c 0 -i 40 -a 0 -x {3.2 2.1 -1 ------- null}
+ -t 0.0472516635519159 -s 2 -d 1 -p rtProtoDV -e 7 -c 0 -i 52 -a 0 -x {2.1 1.1 -1 ------- null}
- -t 0.0472516635519159 -s 2 -d 1 -p rtProtoDV -e 7 -c 0 -i 52 -a 0 -x {2.1 1.1 -1 ------- null}
h -t 0.0472516635519159 -s 2 -d 1 -p rtProtoDV -e 7 -c 0 -i 52 -a 0 -x {2.1 1.1 -1 ------- null}
+ -t 0.0472516635519159 -s 2 -d 3 -p rtProtoDV -e 7 -c 0 -i 53 -a 0 -x {2.1 3.2 -1 ------- null}
- -t 0.0472516635519159 -s 2 -d 3 -p rtProtoDV -e 7 -c 0 -i 53 -a 0 -x {2.1 3.2 -1 ------- null}
h -t 0.0472516635519159 -s 2 -d 3 -p rtProtoDV -e 7 -c 0 -i 53 -a 0 -x {2.1 3.2 -1 ------- null}
r -t 0.0472516635519159 -s 3 -d 4 -p rtProtoDV -e 7 -c 0 -i 41 -a 0 -x {3.2 4.1 -1 ------- null}
r -t 0.0472516635519159 -s 5 -d 4 -p rtProtoDV -e 7 -c 0 -i 42 -a 0 -x {5.1 4.1 -1 ------- null}
r -t 0.0472516635519159 -s 5 -d 6 -p rtProtoDV -e 7 -c 0 -i 43 -a 0 -x {5.1 6.1 -1 ------- null}
+ -t 0.0472516635519159 -s 6 -d 0 -p rtProtoDV -e 7 -c 0 -i 54 -a 0 -x {6.1 0.2 -1 ------- null}
- -t 0.0472516635519159 -s 6 -d 0 -p rtProtoDV -e 7 -c 0 -i 54 -a 0 -x {6.1 0.2 -1 ------- null}
h -t 0.0472516635519159 -s 6 -d 0 -p rtProtoDV -e 7 -c 0 -i 54 -a 0 -x {6.1 0.2 -1 ------- null}
+ -t 0.0472516635519159 -s 6 -d 5 -p rtProtoDV -e 7 -c 0 -i 55 -a 0 -x {6.1 5.1 -1 ------- null}
- -t 0.0472516635519159 -s 6 -d 5 -p rtProtoDV -e 7 -c 0 -i 55 -a 0 -x {6.1 5.1 -1 ------- null}
h -t 0.0472516635519159 -s 6 -d 5 -p rtProtoDV -e 7 -c 0 -i 55 -a 0 -x {6.1 5.1 -1 ------- null}
r -t 0.0503564551540013 -s 3 -d 2 -p rtProtoDV -e 7 -c 0 -i 44 -a 0 -x {3.2 2.1 -1 ------- null}
r -t 0.0503564551540013 -s 3 -d 4 -p rtProtoDV -e 7 -c 0 -i 45 -a 0 -x {3.2 4.1 -1 ------- null}
r -t 0.0503937884873346 -s 2 -d 1 -p rtProtoDV -e 7 -c 0 -i 46 -a 0 -x {2.1 1.1 -1 ------- null}
r -t 0.0503937884873346 -s 2 -d 3 -p rtProtoDV -e 7 -c 0 -i 47 -a 0 -x {2.1 3.2 -1 ------- null}
r -t 0.0503937884873346 -s 0 -d 1 -p rtProtoDV -e 7 -c 0 -i 48 -a 0 -x {0.2 1.1 -1 ------- null}
r -t 0.0503937884873346 -s 0 -d 6 -p rtProtoDV -e 7 -c 0 -i 49 -a 0 -x {0.2 6.1 -1 ------- null}
r -t 0.0540986688560434 -s 3 -d 2 -p rtProtoDV -e 7 -c 0 -i 50 -a 0 -x {3.2 2.1 -1 ------- null}
r -t 0.0540986688560434 -s 3 -d 4 -p rtProtoDV -e 7 -c 0 -i 51 -a 0 -x {3.2 4.1 -1 ------- null}
r -t 0.0572889968852492 -s 2 -d 1 -p rtProtoDV -e 7 -c 0 -i 52 -a 0 -x {2.1 1.1 -1 ------- null}
r -t 0.0572889968852492 -s 2 -d 3 -p rtProtoDV -e 7 -c 0 -i 53 -a 0 -x {2.1 3.2 -1 ------- null}
r -t 0.0572889968852492 -s 6 -d 0 -p rtProtoDV -e 7 -c 0 -i 54 -a 0 -x {6.1 0.2 -1 ------- null}
r -t 0.0572889968852492 -s 6 -d 5 -p rtProtoDV -e 7 -c 0 -i 55 -a 0 -x {6.1 5.1 -1 ------- null}
+ -t 0.156480885882155 -s 6 -d 0 -p rtProtoDV -e 7 -c 0 -i 56 -a 0 -x {6.1 0.2 -1 ------- null}
- -t 0.156480885882155 -s 6 -d 0 -p rtProtoDV -e 7 -c 0 -i 56 -a 0 -x {6.1 0.2 -1 ------- null}
h -t 0.156480885882155 -s 6 -d 0 -p rtProtoDV -e 7 -c 0 -i 56 -a 0 -x {6.1 0.2 -1 ------- null}
+ -t 0.156480885882155 -s 6 -d 5 -p rtProtoDV -e 7 -c 0 -i 57 -a 0 -x {6.1 5.1 -1 ------- null}
- -t 0.156480885882155 -s 6 -d 5 -p rtProtoDV -e 7 -c 0 -i 57 -a 0 -x {6.1 5.1 -1 ------- null}
h -t 0.156480885882155 -s 6 -d 5 -p rtProtoDV -e 7 -c 0 -i 57 -a 0 -x {6.1 5.1 -1 ------- null}
r -t 0.166518219215488 -s 6 -d 0 -p rtProtoDV -e 7 -c 0 -i 56 -a 0 -x {6.1 0.2 -1 ------- null}
r -t 0.166518219215488 -s 6 -d 5 -p rtProtoDV -e 7 -c 0 -i 57 -a 0 -x {6.1 5.1 -1 ------- null}
+ -t 0.22058669092161 -s 4 -d 3 -p rtProtoDV -e 7 -c 0 -i 58 -a 0 -x {4.1 3.2 -1 ------- null}
- -t 0.22058669092161 -s 4 -d 3 -p rtProtoDV -e 7 -c 0 -i 58 -a 0 -x {4.1 3.2 -1 ------- null}
h -t 0.22058669092161 -s 4 -d 3 -p rtProtoDV -e 7 -c 0 -i 58 -a 0 -x {4.1 3.2 -1 ------- null}
+ -t 0.22058669092161 -s 4 -d 5 -p rtProtoDV -e 7 -c 0 -i 59 -a 0 -x {4.1 5.1 -1 ------- null}
- -t 0.22058669092161 -s 4 -d 5 -p rtProtoDV -e 7 -c 0 -i 59 -a 0 -x {4.1 5.1 -1 ------- null}
h -t 0.22058669092161 -s 4 -d 5 -p rtProtoDV -e 7 -c 0 -i 59 -a 0 -x {4.1 5.1 -1 ------- null}
r -t 0.230624024254943 -s 4 -d 3 -p rtProtoDV -e 7 -c 0 -i 58 -a 0 -x {4.1 3.2 -1 ------- null}
r -t 0.230624024254943 -s 4 -d 5 -p rtProtoDV -e 7 -c 0 -i 59 -a 0 -x {4.1 5.1 -1 ------- null}
+ -t 0.277940357931862 -s 1 -d 0 -p rtProtoDV -e 7 -c 0 -i 60 -a 0 -x {1.1 0.2 -1 ------- null}
- -t 0.277940357931862 -s 1 -d 0 -p rtProtoDV -e 7 -c 0 -i 60 -a 0 -x {1.1 0.2 -1 ------- null}
h -t 0.277940357931862 -s 1 -d 0 -p rtProtoDV -e 7 -c 0 -i 60 -a 0 -x {1.1 0.2 -1 ------- null}
+ -t 0.277940357931862 -s 1 -d 2 -p rtProtoDV -e 7 -c 0 -i 61 -a 0 -x {1.1 2.1 -1 ------- null}
- -t 0.277940357931862 -s 1 -d 2 -p rtProtoDV -e 7 -c 0 -i 61 -a 0 -x {1.1 2.1 -1 ------- null}
h -t 0.277940357931862 -s 1 -d 2 -p rtProtoDV -e 7 -c 0 -i 61 -a 0 -x {1.1 2.1 -1 ------- null}
r -t 0.287977691265195 -s 1 -d 0 -p rtProtoDV -e 7 -c 0 -i 60 -a 0 -x {1.1 0.2 -1 ------- null}
r -t 0.287977691265195 -s 1 -d 2 -p rtProtoDV -e 7 -c 0 -i 61 -a 0 -x {1.1 2.1 -1 ------- null}
+ -t 0.399577726796073 -s 5 -d 4 -p rtProtoDV -e 7 -c 0 -i 62 -a 0 -x {5.1 4.1 -1 ------- null}
- -t 0.399577726796073 -s 5 -d 4 -p rtProtoDV -e 7 -c 0 -i 62 -a 0 -x {5.1 4.1 -1 ------- null}
h -t 0.399577726796073 -s 5 -d 4 -p rtProtoDV -e 7 -c 0 -i 62 -a 0 -x {5.1 4.1 -1 ------- null}
+ -t 0.399577726796073 -s 5 -d 6 -p rtProtoDV -e 7 -c 0 -i 63 -a 0 -x {5.1 6.1 -1 ------- null}
- -t 0.399577726796073 -s 5 -d 6 -p rtProtoDV -e 7 -c 0 -i 63 -a 0 -x {5.1 6.1 -1 ------- null}
h -t 0.399577726796073 -s 5 -d 6 -p rtProtoDV -e 7 -c 0 -i 63 -a 0 -x {5.1 6.1 -1 ------- null}
r -t 0.409615060129406 -s 5 -d 4 -p rtProtoDV -e 7 -c 0 -i 62 -a 0 -x {5.1 4.1 -1 ------- null}
r -t 0.409615060129406 -s 5 -d 6 -p rtProtoDV -e 7 -c 0 -i 63 -a 0 -x {5.1 6.1 -1 ------- null}
n -t 0.5 -s 0 -S COLOR -c Green -o black -i Green -I black
n -t 0.5 -s 3 -S COLOR -c Green -o black -i Green -I black
v -t 0.5 -e sim_annotation 0.5 1 Starting FTP node0 to node6
n -t 0.5 -s 0 -S DCOLOR -e "green" -E black
n -t 0.5 -s 3 -S DCOLOR -e "green" -E black
+ -t 0.5 -s 0 -d 1 -p tcp -e 40 -c 1 -i 64 -a 1 -x {0.0 3.0 0 ------- null}
- -t 0.5 -s 0 -d 1 -p tcp -e 40 -c 1 -i 64 -a 1 -x {0.0 3.0 0 ------- null}
h -t 0.5 -s 0 -d 1 -p tcp -e 40 -c 1 -i 64 -a 1 -x {0.0 3.0 -1 ------- null}
n -t 0.5 -s 1 -S DCOLOR -e "green" -E black
n -t 0.5 -s 2 -S DCOLOR -e "green" -E black
n -t 0.5 -s 4 -S DCOLOR -e "blue" -E black
n -t 0.5 -s 5 -S DCOLOR -e "blue" -E black
n -t 0.5 -s 6 -S DCOLOR -e "blue" -E black
r -t 0.510213333333333 -s 0 -d 1 -p tcp -e 40 -c 1 -i 64 -a 1 -x {0.0 3.0 0 ------- null}
+ -t 0.510213333333333 -s 1 -d 2 -p tcp -e 40 -c 1 -i 64 -a 1 -x {0.0 3.0 0 ------- null}
- -t 0.510213333333333 -s 1 -d 2 -p tcp -e 40 -c 1 -i 64 -a 1 -x {0.0 3.0 0 ------- null}
h -t 0.510213333333333 -s 1 -d 2 -p tcp -e 40 -c 1 -i 64 -a 1 -x {0.0 3.0 -1 ------- null}
r -t 0.520426666666667 -s 1 -d 2 -p tcp -e 40 -c 1 -i 64 -a 1 -x {0.0 3.0 0 ------- null}
+ -t 0.520426666666667 -s 2 -d 3 -p tcp -e 40 -c 1 -i 64 -a 1 -x {0.0 3.0 0 ------- null}
- -t 0.520426666666667 -s 2 -d 3 -p tcp -e 40 -c 1 -i 64 -a 1 -x {0.0 3.0 0 ------- null}
h -t 0.520426666666667 -s 2 -d 3 -p tcp -e 40 -c 1 -i 64 -a 1 -x {0.0 3.0 -1 ------- null}
r -t 0.53064 -s 2 -d 3 -p tcp -e 40 -c 1 -i 64 -a 1 -x {0.0 3.0 0 ------- null}
+ -t 0.53064 -s 3 -d 2 -p ack -e 40 -c 1 -i 65 -a 1 -x {3.0 0.0 0 ------- null}
- -t 0.53064 -s 3 -d 2 -p ack -e 40 -c 1 -i 65 -a 1 -x {3.0 0.0 0 ------- null}
h -t 0.53064 -s 3 -d 2 -p ack -e 40 -c 1 -i 65 -a 1 -x {3.0 0.0 -1 ------- null}
r -t 0.540853333333333 -s 3 -d 2 -p ack -e 40 -c 1 -i 65 -a 1 -x {3.0 0.0 0 ------- null}
+ -t 0.540853333333333 -s 2 -d 1 -p ack -e 40 -c 1 -i 65 -a 1 -x {3.0 0.0 0 ------- null}
- -t 0.540853333333333 -s 2 -d 1 -p ack -e 40 -c 1 -i 65 -a 1 -x {3.0 0.0 0 ------- null}
h -t 0.540853333333333 -s 2 -d 1 -p ack -e 40 -c 1 -i 65 -a 1 -x {3.0 0.0 -1 ------- null}
r -t 0.551066666666666 -s 2 -d 1 -p ack -e 40 -c 1 -i 65 -a 1 -x {3.0 0.0 0 ------- null}
+ -t 0.551066666666666 -s 1 -d 0 -p ack -e 40 -c 1 -i 65 -a 1 -x {3.0 0.0 0 ------- null}
- -t 0.551066666666666 -s 1 -d 0 -p ack -e 40 -c 1 -i 65 -a 1 -x {3.0 0.0 0 ------- null}
h -t 0.551066666666666 -s 1 -d 0 -p ack -e 40 -c 1 -i 65 -a 1 -x {3.0 0.0 -1 ------- null}
r -t 0.56128 -s 1 -d 0 -p ack -e 40 -c 1 -i 65 -a 1 -x {3.0 0.0 0 ------- null}
+ -t 0.56128 -s 0 -d 1 -p tcp -e 1040 -c 1 -i 66 -a 1 -x {0.0 3.0 1 ------- null}
- -t 0.56128 -s 0 -d 1 -p tcp -e 1040 -c 1 -i 66 -a 1 -x {0.0 3.0 1 ------- null}
h -t 0.56128 -s 0 -d 1 -p tcp -e 1040 -c 1 -i 66 -a 1 -x {0.0 3.0 -1 ------- null}
+ -t 0.56128 -s 0 -d 1 -p tcp -e 1040 -c 1 -i 67 -a 1 -x {0.0 3.0 2 ------- null}
- -t 0.566826666666666 -s 0 -d 1 -p tcp -e 1040 -c 1 -i 67 -a 1 -x {0.0 3.0 2 ------- null}
h -t 0.566826666666666 -s 0 -d 1 -p tcp -e 1040 -c 1 -i 67 -a 1 -x {0.0 3.0 -1 ------- null}
r -t 0.576826666666666 -s 0 -d 1 -p tcp -e 1040 -c 1 -i 66 -a 1 -x {0.0 3.0 1 ------- null}
+ -t 0.576826666666666 -s 1 -d 2 -p tcp -e 1040 -c 1 -i 66 -a 1 -x {0.0 3.0 1 ------- null}
- -t 0.576826666666666 -s 1 -d 2 -p tcp -e 1040 -c 1 -i 66 -a 1 -x {0.0 3.0 1 ------- null}
h -t 0.576826666666666 -s 1 -d 2 -p tcp -e 1040 -c 1 -i 66 -a 1 -x {0.0 3.0 -1 ------- null}
r -t 0.582373333333333 -s 0 -d 1 -p tcp -e 1040 -c 1 -i 67 -a 1 -x {0.0 3.0 2 ------- null}
+ -t 0.582373333333333 -s 1 -d 2 -p tcp -e 1040 -c 1 -i 67 -a 1 -x {0.0 3.0 2 ------- null}
- -t 0.582373333333333 -s 1 -d 2 -p tcp -e 1040 -c 1 -i 67 -a 1 -x {0.0 3.0 2 ------- null}
h -t 0.582373333333333 -s 1 -d 2 -p tcp -e 1040 -c 1 -i 67 -a 1 -x {0.0 3.0 -1 ------- null}
r -t 0.592373333333333 -s 1 -d 2 -p tcp -e 1040 -c 1 -i 66 -a 1 -x {0.0 3.0 1 ------- null}
+ -t 0.592373333333333 -s 2 -d 3 -p tcp -e 1040 -c 1 -i 66 -a 1 -x {0.0 3.0 1 ------- null}
- -t 0.592373333333333 -s 2 -d 3 -p tcp -e 1040 -c 1 -i 66 -a 1 -x {0.0 3.0 1 ------- null}