s 0.010000000 _1_ AGT  --- 0 tcp 40 [0 0 0 0] ------- [1:0 8:0 32 0] [0 0] 0 0
r 0.010000000 _1_ RTR  --- 0 tcp 40 [0 0 0 0] ------- [1:0 8:0 32 0] [0 0] 0 0
s 0.010000000 _1_ RTR  --- 0 AODV 48 [0 0 0 0] ------- [1:255 -1:255 30 0] [0x2 1 1 [8 0] [1 4]] (REQUEST)
s 0.010115000 _1_ MAC  --- 0 AODV 106 [0 ffffffff 1 800] ------- [1:255 -1:255 30 0] [0x2 1 1 [8 0] [1 4]] (REQUEST)
r 0.010963745 _3_ MAC  --- 0 AODV 48 [0 ffffffff 1 800] ------- [1:255 -1:255 30 0] [0x2 1 1 [8 0] [1 4]] (REQUEST)
r 0.010963806 _6_ MAC  --- 0 AODV 48 [0 ffffffff 1 800] ------- [1:255 -1:255 30 0] [0x2 1 1 [8 0] [1 4]] (REQUEST)
r 0.010988745 _3_ RTR  --- 0 AODV 48 [0 ffffffff 1 800] ------- [1:255 -1:255 30 0] [0x2 1 1 [8 0] [1 4]] (REQUEST)
r 0.010988806 _6_ RTR  --- 0 AODV 48 [0 ffffffff 1 800] ------- [1:255 -1:255 30 0] [0x2 1 1 [8 0] [1 4]] (REQUEST)
s 0.011869972 _3_ RTR  --- 0 AODV 48 [0 ffffffff 1 800] ------- [3:255 -1:255 29 0] [0x2 2 1 [8 0] [1 4]] (REQUEST)
s 0.011944972 _3_ MAC  --- 0 AODV 106 [0 ffffffff 3 800] ------- [3:255 -1:255 29 0] [0x2 2 1 [8 0] [1 4]] (REQUEST)
r 0.012793139 _2_ MAC  --- 0 AODV 48 [0 ffffffff 3 800] ------- [3:255 -1:255 29 0] [0x2 2 1 [8 0] [1 4]] (REQUEST)
r 0.012793349 _0_ MAC  --- 0 AODV 48 [0 ffffffff 3 800] ------- [3:255 -1:255 29 0] [0x2 2 1 [8 0] [1 4]] (REQUEST)
r 0.012793522 _4_ MAC  --- 0 AODV 48 [0 ffffffff 3 800] ------- [3:255 -1:255 29 0] [0x2 2 1 [8 0] [1 4]] (REQUEST)
r 0.012793693 _6_ MAC  --- 0 AODV 48 [0 ffffffff 3 800] ------- [3:255 -1:255 29 0] [0x2 2 1 [8 0] [1 4]] (REQUEST)
r 0.012793703 _5_ MAC  --- 0 AODV 48 [0 ffffffff 3 800] ------- [3:255 -1:255 29 0] [0x2 2 1 [8 0] [1 4]] (REQUEST)
r 0.012793717 _1_ MAC  --- 0 AODV 48 [0 ffffffff 3 800] ------- [3:255 -1:255 29 0] [0x2 2 1 [8 0] [1 4]] (REQUEST)
r 0.012818139 _2_ RTR  --- 0 AODV 48 [0 ffffffff 3 800] ------- [3:255 -1:255 29 0] [0x2 2 1 [8 0] [1 4]] (REQUEST)
r 0.012818349 _0_ RTR  --- 0 AODV 48 [0 ffffffff 3 800] ------- [3:255 -1:255 29 0] [0x2 2 1 [8 0] [1 4]] (REQUEST)
r 0.012818522 _4_ RTR  --- 0 AODV 48 [0 ffffffff 3 800] ------- [3:255 -1:255 29 0] [0x2 2 1 [8 0] [1 4]] (REQUEST)
r 0.012818693 _6_ RTR  --- 0 AODV 48 [0 ffffffff 3 800] ------- [3:255 -1:255 29 0] [0x2 2 1 [8 0] [1 4]] (REQUEST)
r 0.012818703 _5_ RTR  --- 0 AODV 48 [0 ffffffff 3 800] ------- [3:255 -1:255 29 0] [0x2 2 1 [8 0] [1 4]] (REQUEST)
r 0.012818717 _1_ RTR  --- 0 AODV 48 [0 ffffffff 3 800] ------- [3:255 -1:255 29 0] [0x2 2 1 [8 0] [1 4]] (REQUEST)
s 0.015164367 _0_ RTR  --- 0 AODV 48 [0 ffffffff 3 800] ------- [0:255 -1:255 28 0] [0x2 3 1 [8 0] [1 4]] (REQUEST)
s 0.015400539 _6_ RTR  --- 0 AODV 48 [0 ffffffff 1 800] ------- [6:255 -1:255 29 0] [0x2 2 1 [8 0] [1 4]] (REQUEST)
s 0.015479367 _0_ MAC  --- 0 AODV 106 [0 ffffffff 0 800] ------- [0:255 -1:255 28 0] [0x2 3 1 [8 0] [1 4]] (REQUEST)
s 0.015909494 _5_ RTR  --- 0 AODV 48 [0 ffffffff 3 800] ------- [5:255 -1:255 28 0] [0x2 3 1 [8 0] [1 4]] (REQUEST)
r 0.016327652 _2_ MAC  --- 0 AODV 48 [0 ffffffff 0 800] ------- [0:255 -1:255 28 0] [0x2 3 1 [8 0] [1 4]] (REQUEST)
r 0.016327744 _3_ MAC  --- 0 AODV 48 [0 ffffffff 0 800] ------- [0:255 -1:255 28 0] [0x2 3 1 [8 0] [1 4]] (REQUEST)
r 0.016328178 _5_ MAC  --- 0 AODV 48 [0 ffffffff 0 800] ------- [0:255 -1:255 28 0] [0x2 3 1 [8 0] [1 4]] (REQUEST)
r 0.016352652 _2_ RTR  --- 0 AODV 48 [0 ffffffff 0 800] ------- [0:255 -1:255 28 0] [0x2 3 1 [8 0] [1 4]] (REQUEST)
r 0.016352744 _3_ RTR  --- 0 AODV 48 [0 ffffffff 0 800] ------- [0:255 -1:255 28 0] [0x2 3 1 [8 0] [1 4]] (REQUEST)
r 0.016353178 _5_ RTR  --- 0 AODV 48 [0 ffffffff 0 800] ------- [0:255 -1:255 28 0] [0x2 3 1 [8 0] [1 4]] (REQUEST)
s 0.016782460 _6_ MAC  --- 0 AODV 106 [0 ffffffff 6 800] ------- [6:255 -1:255 29 0] [0x2 2 1 [8 0] [1 4]] (REQUEST)
r 0.017630735 _4_ MAC  --- 0 AODV 48 [0 ffffffff 6 800] ------- [6:255 -1:255 29 0] [0x2 2 1 [8 0] [1 4]] (REQUEST)
r 0.017631127 _7_ MAC  --- 0 AODV 48 [0 ffffffff 6 800] ------- [6:255 -1:255 29 0] [0x2 2 1 [8 0] [1 4]] (REQUEST)
r 0.017631181 _3_ MAC  --- 0 AODV 48 [0 ffffffff 6 800] ------- [6:255 -1:255 29 0] [0x2 2 1 [8 0] [1 4]] (REQUEST)
r 0.017631266 _1_ MAC  --- 0 AODV 48 [0 ffffffff 6 800] ------- [6:255 -1:255 29 0] [0x2 2 1 [8 0] [1 4]] (REQUEST)
r 0.017631285 _2_ MAC  --- 0 AODV 48 [0 ffffffff 6 800] ------- [6:255 -1:255 29 0] [0x2 2 1 [8 0] [1 4]] (REQUEST)
r 0.017655735 _4_ RTR  --- 0 AODV 48 [0 ffffffff 6 800] ------- [6:255 -1:255 29 0] [0x2 2 1 [8 0] [1 4]] (REQUEST)
r 0.017656127 _7_ RTR  --- 0 AODV 48 [0 ffffffff 6 800] ------- [6:255 -1:255 29 0] [0x2 2 1 [8 0] [1 4]] (REQUEST)
r 0.017656181 _3_ RTR  --- 0 AODV 48 [0 ffffffff 6 800] ------- [6:255 -1:255 29 0] [0x2 2 1 [8 0] [1 4]] (REQUEST)
r 0.017656266 _1_ RTR  --- 0 AODV 48 [0 ffffffff 6 800] ------- [6:255 -1:255 29 0] [0x2 2 1 [8 0] [1 4]] (REQUEST)
r 0.017656285 _2_ RTR  --- 0 AODV 48 [0 ffffffff 6 800] ------- [6:255 -1:255 29 0] [0x2 2 1 [8 0] [1 4]] (REQUEST)
s 0.018185399 _5_ MAC  --- 0 AODV 106 [0 ffffffff 5 800] ------- [5:255 -1:255 28 0] [0x2 3 1 [8 0] [1 4]] (REQUEST)
r 0.019034019 _2_ MAC  --- 0 AODV 48 [0 ffffffff 5 800] ------- [5:255 -1:255 28 0] [0x2 3 1 [8 0] [1 4]] (REQUEST)
r 0.019034066 _4_ MAC  --- 0 AODV 48 [0 ffffffff 5 800] ------- [5:255 -1:255 28 0] [0x2 3 1 [8 0] [1 4]] (REQUEST)
r 0.019034130 _3_ MAC  --- 0 AODV 48 [0 ffffffff 5 800] ------- [5:255 -1:255 28 0] [0x2 3 1 [8 0] [1 4]] (REQUEST)
r 0.019034211 _0_ MAC  --- 0 AODV 48 [0 ffffffff 5 800] ------- [5:255 -1:255 28 0] [0x2 3 1 [8 0] [1 4]] (REQUEST)
r 0.019059019 _2_ RTR  --- 0 AODV 48 [0 ffffffff 5 800] ------- [5:255 -1:255 28 0] [0x2 3 1 [8 0] [1 4]] (REQUEST)
r 0.019059066 _4_ RTR  --- 0 AODV 48 [0 ffffffff 5 800] ------- [5:255 -1:255 28 0] [0x2 3 1 [8 0] [1 4]] (REQUEST)
r 0.019059130 _3_ RTR  --- 0 AODV 48 [0 ffffffff 5 800] ------- [5:255 -1:255 28 0] [0x2 3 1 [8 0] [1 4]] (REQUEST)
r 0.019059211 _0_ RTR  --- 0 AODV 48 [0 ffffffff 5 800] ------- [5:255 -1:255 28 0] [0x2 3 1 [8 0] [1 4]] (REQUEST)
s 0.019207173 _4_ RTR  --- 0 AODV 48 [0 ffffffff 3 800] ------- [4:255 -1:255 28 0] [0x2 3 1 [8 0] [1 4]] (REQUEST)
s 0.019762173 _4_ MAC  --- 0 AODV 106 [0 ffffffff 4 800] ------- [4:255 -1:255 28 0] [0x2 3 1 [8 0] [1 4]] (REQUEST)
r 0.020610448 _6_ MAC  --- 0 AODV 48 [0 ffffffff 4 800] ------- [4:255 -1:255 28 0] [0x2 3 1 [8 0] [1 4]] (REQUEST)
r 0.020610723 _3_ MAC  --- 0 AODV 48 [0 ffffffff 4 800] ------- [4:255 -1:255 28 0] [0x2 3 1 [8 0] [1 4]] (REQUEST)
r 0.020610785 _2_ MAC  --- 0 AODV 48 [0 ffffffff 4 800] ------- [4:255 -1:255 28 0] [0x2 3 1 [8 0] [1 4]] (REQUEST)
r 0.020610841 _5_ MAC  --- 0 AODV 48 [0 ffffffff 4 800] ------- [4:255 -1:255 28 0] [0x2 3 1 [8 0] [1 4]] (REQUEST)
r 0.020610954 _7_ MAC  --- 0 AODV 48 [0 ffffffff 4 800] ------- [4:255 -1:255 28 0] [0x2 3 1 [8 0] [1 4]] (REQUEST)
r 0.020635448 _6_ RTR  --- 0 AODV 48 [0 ffffffff 4 800] ------- [4:255 -1:255 28 0] [0x2 3 1 [8 0] [1 4]] (REQUEST)
r 0.020635723 _3_ RTR  --- 0 AODV 48 [0 ffffffff 4 800] ------- [4:255 -1:255 28 0] [0x2 3 1 [8 0] [1 4]] (REQUEST)
r 0.020635785 _2_ RTR  --- 0 AODV 48 [0 ffffffff 4 800] ------- [4:255 -1:255 28 0] [0x2 3 1 [8 0] [1 4]] (REQUEST)
r 0.020635841 _5_ RTR  --- 0 AODV 48 [0 ffffffff 4 800] ------- [4:255 -1:255 28 0] [0x2 3 1 [8 0] [1 4]] (REQUEST)
r 0.020635954 _7_ RTR  --- 0 AODV 48 [0 ffffffff 4 800] ------- [4:255 -1:255 28 0] [0x2 3 1 [8 0] [1 4]] (REQUEST)
s 0.020982899 _2_ RTR  --- 0 AODV 48 [0 ffffffff 3 800] ------- [2:255 -1:255 28 0] [0x2 3 1 [8 0] [1 4]] (REQUEST)
s 0.021377899 _2_ MAC  --- 0 AODV 106 [0 ffffffff 2 800] ------- [2:255 -1:255 28 0] [0x2 3 1 [8 0] [1 4]] (REQUEST)
r 0.022226066 _3_ MAC  --- 0 AODV 48 [0 ffffffff 2 800] ------- [2:255 -1:255 28 0] [0x2 3 1 [8 0] [1 4]] (REQUEST)
r 0.022226184 _0_ MAC  --- 0 AODV 48 [0 ffffffff 2 800] ------- [2:255 -1:255 28 0] [0x2 3 1 [8 0] [1 4]] (REQUEST)
r 0.022226511 _4_ MAC  --- 0 AODV 48 [0 ffffffff 2 800] ------- [2:255 -1:255 28 0] [0x2 3 1 [8 0] [1 4]] (REQUEST)
r 0.022226519 _5_ MAC  --- 0 AODV 48 [0 ffffffff 2 800] ------- [2:255 -1:255 28 0] [0x2 3 1 [8 0] [1 4]] (REQUEST)
r 0.022226725 _6_ MAC  --- 0 AODV 48 [0 ffffffff 2 800] ------- [2:255 -1:255 28 0] [0x2 3 1 [8 0] [1 4]] (REQUEST)
r 0.022251066 _3_ RTR  --- 0 AODV 48 [0 ffffffff 2 800] ------- [2:255 -1:255 28 0] [0x2 3 1 [8 0] [1 4]] (REQUEST)
r 0.022251184 _0_ RTR  --- 0 AODV 48 [0 ffffffff 2 800] ------- [2:255 -1:255 28 0] [0x2 3 1 [8 0] [1 4]] (REQUEST)
r 0.022251511 _4_ RTR  --- 0 AODV 48 [0 ffffffff 2 800] ------- [2:255 -1:255 28 0] [0x2 3 1 [8 0] [1 4]] (REQUEST)
r 0.022251519 _5_ RTR  --- 0 AODV 48 [0 ffffffff 2 800] ------- [2:255 -1:255 28 0] [0x2 3 1 [8 0] [1 4]] (REQUEST)
r 0.022251725 _6_ RTR  --- 0 AODV 48 [0 ffffffff 2 800] ------- [2:255 -1:255 28 0] [0x2 3 1 [8 0] [1 4]] (REQUEST)
s 0.026253404 _7_ RTR  --- 0 AODV 48 [0 ffffffff 6 800] ------- [7:255 -1:255 28 0] [0x2 3 1 [8 0] [1 4]] (REQUEST)
s 0.026548404 _7_ MAC  --- 0 AODV 106 [0 ffffffff 7 800] ------- [7:255 -1:255 28 0] [0x2 3 1 [8 0] [1 4]] (REQUEST)
r 0.027396604 _8_ MAC  --- 0 AODV 48 [0 ffffffff 7 800] ------- [7:255 -1:255 28 0] [0x2 3 1 [8 0] [1 4]] (REQUEST)
r 0.027396805 _9_ MAC  --- 0 AODV 48 [0 ffffffff 7 800] ------- [7:255 -1:255 28 0] [0x2 3 1 [8 0] [1 4]] (REQUEST)
r 0.027396913 _11_ MAC  --- 0 AODV 48 [0 ffffffff 7 800] ------- [7:255 -1:255 28 0] [0x2 3 1 [8 0] [1 4]] (REQUEST)
r 0.027397070 _6_ MAC  --- 0 AODV 48 [0 ffffffff 7 800] ------- [7:255 -1:255 28 0] [0x2 3 1 [8 0] [1 4]] (REQUEST)
r 0.027397184 _4_ MAC  --- 0 AODV 48 [0 ffffffff 7 800] ------- [7:255 -1:255 28 0] [0x2 3 1 [8 0] [1 4]] (REQUEST)
r 0.027421604 _8_ RTR  --- 0 AODV 48 [0 ffffffff 7 800] ------- [7:255 -1:255 28 0] [0x2 3 1 [8 0] [1 4]] (REQUEST)
s 0.027421604 _8_ RTR  --- 0 AODV 44 [0 0 0 0] ------- [8:255 1:255 30 7] [0x4 1 [8 4] 10.000000] (REPLY)
r 0.027421805 _9_ RTR  --- 0 AODV 48 [0 ffffffff 7 800] ------- [7:255 -1:255 28 0] [0x2 3 1 [8 0] [1 4]] (REQUEST)
r 0.027421913 _11_ RTR  --- 0 AODV 48 [0 ffffffff 7 800] ------- [7:255 -1:255 28 0] [0x2 3 1 [8 0] [1 4]] (REQUEST)
r 0.027422070 _6_ RTR  --- 0 AODV 48 [0 ffffffff 7 800] ------- [7:255 -1:255 28 0] [0x2 3 1 [8 0] [1 4]] (REQUEST)
r 0.027422184 _4_ RTR  --- 0 AODV 48 [0 ffffffff 7 800] ------- [7:255 -1:255 28 0] [0x2 3 1 [8 0] [1 4]] (REQUEST)
s 0.027656604 _8_ MAC  --- 0 ARP 86 [0 ffffffff 8 806] ------- [REQUEST 8/8 0/7]
r 0.028344804 _7_ MAC  --- 0 ARP 28 [0 ffffffff 8 806] ------- [REQUEST 8/8 0/7]
r 0.028344889 _9_ MAC  --- 0 ARP 28 [0 ffffffff 8 806] ------- [REQUEST 8/8 0/7]
r 0.028344958 _11_ MAC  --- 0 ARP 28 [0 ffffffff 8 806] ------- [REQUEST 8/8 0/7]
s 0.028799804 _7_ MAC  --- 0 RTS 44 [52e 8 7 0] 
r 0.029152004 _8_ MAC  --- 0 RTS 44 [52e 8 7 0] 
s 0.029162004 _8_ MAC  --- 0 CTS 38 [3f4 7 0 0] 
r 0.029466204 _7_ MAC  --- 0 CTS 38 [3f4 7 0 0] 
s 0.029476204 _7_ MAC  --- 0 ARP 86 [13a 8 7 806] ------- [REPLY 7/7 8/8]
r 0.030164404 _8_ MAC  --- 0 ARP 28 [13a 8 7 806] ------- [REPLY 7/7 8/8]
s 0.030174404 _8_ MAC  --- 0 ACK 38 [0 7 0 0] 
r 0.030478604 _7_ MAC  --- 0 ACK 38 [0 7 0 0] 
s 0.030708404 _8_ MAC  --- 0 RTS 44 [5ae 7 8 0] 
r 0.031060604 _7_ MAC  --- 0 RTS 44 [5ae 7 8 0] 
s 0.031070604 _7_ MAC  --- 0 CTS 38 [474 8 0 0] 
r 0.031374804 _8_ MAC  --- 0 CTS 38 [474 8 0 0] 
s 0.031384804 _8_ MAC  --- 0 AODV 102 [13a 7 8 800] ------- [8:255 1:255 30 7] [0x4 1 [8 4] 10.000000] (REPLY)
s 0.032083072 _11_ RTR  --- 0 AODV 48 [0 ffffffff 7 800] ------- [11:255 -1:255 27 0] [0x2 4 1 [8 0] [1 4]] (REQUEST)
r 0.032201004 _7_ MAC  --- 0 AODV 44 [13a 7 8 800] ------- [8:255 1:255 30 7] [0x4 1 [8 4] 10.000000] (REPLY)
s 0.032211004 _7_ MAC  --- 0 ACK 38 [0 8 0 0] 
r 0.032226004 _7_ RTR  --- 0 AODV 44 [13a 7 8 800] ------- [8:255 1:255 30 7] [0x4 1 [8 4] 10.000000] (REPLY)
f 0.032226004 _7_ RTR  --- 0 AODV 44 [13a 7 8 800] ------- [8:255 1:255 29 6] [0x4 2 [8 4] 10.000000] (REPLY)
r 0.032515204 _8_ MAC  --- 0 ACK 38 [0 8 0 0] 
s 0.032608293 _9_ RTR  --- 0 AODV 48 [0 ffffffff 7 800] ------- [9:255 -1:255 27 0] [0x2 4 1 [8 0] [1 4]] (REQUEST)
s 0.032925513 _11_ MAC  --- 0 AODV 106 [0 ffffffff b 800] ------- [11:255 -1:255 27 0] [0x2 4 1 [8 0] [1 4]] (REQUEST)
r 0.033773646 _9_ MAC  --- 0 AODV 48 [0 ffffffff b 800] ------- [11:255 -1:255 27 0] [0x2 4 1 [8 0] [1 4]] (REQUEST)
r 0.033773867 _8_ MAC  --- 0 AODV 48 [0 ffffffff b 800] ------- [11:255 -1:255 27 0] [0x2 4 1 [8 0] [1 4]] (REQUEST)
r 0.033774021 _7_ MAC  --- 0 AODV 48 [0 ffffffff b 800] ------- [11:255 -1:255 27 0] [0x2 4 1 [8 0] [1 4]] (REQUEST)
r 0.033774183 _12_ MAC  --- 0 AODV 48 [0 ffffffff b 800] ------- [11:255 -1:255 27 0] [0x2 4 1 [8 0] [1 4]] (REQUEST)
r 0.033774209 _10_ MAC  --- 0 AODV 48 [0 ffffffff b 800] ------- [11:255 -1:255 27 0] [0x2 4 1 [8 0] [1 4]] (REQUEST)
r 0.033798646 _9_ RTR  --- 0 AODV 48 [0 ffffffff b 800] ------- [11:255 -1:255 27 0] [0x2 4 1 [8 0] [1 4]] (REQUEST)
r 0.033798867 _8_ RTR  --- 0 AODV 48 [0 ffffffff b 800] ------- [11:255 -1:255 27 0] [0x2 4 1 [8 0] [1 4]] (REQUEST)
r 0.033799021 _7_ RTR  --- 0 AODV 48 [0 ffffffff b 800] ------- [11:255 -1:255 27 0] [0x2 4 1 [8 0] [1 4]] (REQUEST)
r 0.033799183 _12_ RTR  --- 0 AODV 48 [0 ffffffff b 800] ------- [11:255 -1:255 27 0] [0x2 4 1 [8 0] [1 4]] (REQUEST)
r 0.033799209 _10_ RTR  --- 0 AODV 48 [0 ffffffff b 800] ------- [11:255 -1:255 27 0] [0x2 4 1 [8 0] [1 4]] (REQUEST)
s 0.033844021 _7_ MAC  --- 0 ARP 86 [0 ffffffff 7 806] ------- [REQUEST 7/7 0/6]
r 0.034532221 _8_ MAC  --- 0 ARP 28 [0 ffffffff 7 806] ------- [REQUEST 7/7 0/6]
r 0.034532423 _9_ MAC  --- 0 ARP 28 [0 ffffffff 7 806] ------- [REQUEST 7/7 0/6]
r 0.034532530 _11_ MAC  --- 0 ARP 28 [0 ffffffff 7 806] ------- [REQUEST 7/7 0/6]
r 0.034532688 _6_ MAC  --- 0 ARP 28 [0 ffffffff 7 806] ------- [REQUEST 7/7 0/6]
r 0.034532802 _4_ MAC  --- 0 ARP 28 [0 ffffffff 7 806] ------- [REQUEST 7/7 0/6]
s 0.034622423 _9_ MAC  --- 0 AODV 106 [0 ffffffff 9 800] ------- [9:255 -1:255 27 0] [0x2 4 1 [8 0] [1 4]] (REQUEST)
r 0.035470556 _11_ MAC  --- 0 AODV 48 [0 ffffffff 9 800] ------- [9:255 -1:255 27 0] [0x2 4 1 [8 0] [1 4]] (REQUEST)
r 0.035470708 _8_ MAC  --- 0 AODV 48 [0 ffffffff 9 800] ------- [9:255 -1:255 27 0] [0x2 4 1 [8 0] [1 4]] (REQUEST)
r 0.035470824 _7_ MAC  --- 0 AODV 48 [0 ffffffff 9 800] ------- [9:255 -1:255 27 0] [0x2 4 1 [8 0] [1 4]] (REQUEST)
r 0.035471093 _10_ MAC  --- 0 AODV 48 [0 ffffffff 9 800] ------- [9:255 -1:255 27 0] [0x2 4 1 [8 0] [1 4]] (REQUEST)
r 0.035471093 _12_ MAC  --- 0 AODV 48 [0 ffffffff 9 800] ------- [9:255 -1:255 27 0] [0x2 4 1 [8 0] [1 4]] (REQUEST)
r 0.035495556 _11_ RTR  --- 0 AODV 48 [0 ffffffff 9 800] ------- [9:255 -1:255 27 0] [0x2 4 1 [8 0] [1 4]] (REQUEST)
r 0.035495708 _8_ RTR  --- 0 AODV 48 [0 ffffffff 9 800] ------- [9:255 -1:255 27 0] [0x2 4 1 [8 0] [1 4]] (REQUEST)
r 0.035495824 _7_ RTR  --- 0 AODV 48 [0 ffffffff 9 800] ------- [9:255 -1:255 27 0] [0x2 4 1 [8 0] [1 4]] (REQUEST)
r 0.035496093 _10_ RTR  --- 0 AODV 48 [0 ffffffff 9 800] ------- [9:255 -1:255 27 0] [0x2 4 1 [8 0] [1 4]] (REQUEST)
r 0.035496093 _12_ RTR  --- 0 AODV 48 [0 ffffffff 9 800] ------- [9:255 -1:255 27 0] [0x2 4 1 [8 0] [1 4]] (REQUEST)
s 0.036065426 _6_ MAC  --- 0 RTS 44 [52e 7 6 0] 
r 0.036418092 _7_ MAC  --- 0 RTS 44 [52e 7 6 0] 
s 0.036428092 _7_ MAC  --- 0 CTS 38 [3f4 6 0 0] 
r 0.036732759 _6_ MAC  --- 0 CTS 38 [3f4 6 0 0] 
s 0.036742759 _6_ MAC  --- 0 ARP 86 [13a 7 6 806] ------- [REPLY 6/6 7/7]
r 0.037431426 _7_ MAC  --- 0 ARP 28 [13a 7 6 806] ------- [REPLY 6/6 7/7]
s 0.037441426 _7_ MAC  --- 0 ACK 38 [0 6 0 0] 
r 0.037746092 _6_ MAC  --- 0 ACK 38 [0 6 0 0] 
s 0.037854399 _10_ RTR  --- 0 AODV 48 [0 ffffffff b 800] ------- [10:255 -1:255 26 0] [0x2 5 1 [8 0] [1 4]] (REQUEST)
s 0.038315426 _7_ MAC  --- 0 RTS 44 [5ae 6 7 0] 
r 0.038668092 _6_ MAC  --- 0 RTS 44 [5ae 6 7 0] 
s 0.038678092 _6_ MAC  --- 0 CTS 38 [474 7 0 0] 
r 0.038982759 _7_ MAC  --- 0 CTS 38 [474 7 0 0] 
s 0.038992759 _7_ MAC  --- 0 AODV 102 [13a 6 7 800] ------- [8:255 1:255 29 6] [0x4 2 [8 4] 10.000000] (REPLY)
r 0.039809426 _6_ MAC  --- 0 AODV 44 [13a 6 7 800] ------- [8:255 1:255 29 6] [0x4 2 [8 4] 10.000000] (REPLY)
s 0.039819426 _6_ MAC  --- 0 ACK 38 [0 7 0 0] 
r 0.039834426 _6_ RTR  --- 0 AODV 44 [13a 6 7 800] ------- [8:255 1:255 29 6] [0x4 2 [8 4] 10.000000] (REPLY)
f 0.039834426 _6_ RTR  --- 0 AODV 44 [13a 6 7 800] ------- [8:255 1:255 28 1] [0x4 3 [8 4] 10.000000] (REPLY)
r 0.040124092 _7_ MAC  --- 0 ACK 38 [0 7 0 0] 
s 0.040598722 _10_ MAC  --- 0 AODV 106 [0 ffffffff a 800] ------- [10:255 -1:255 26 0] [0x2 5 1 [8 0] [1 4]] (REQUEST)
r 0.041446855 _12_ MAC  --- 0 AODV 48 [0 ffffffff a 800] ------- [10:255 -1:255 26 0] [0x2 5 1 [8 0] [1 4]] (REQUEST)
r 0.041447392 _9_ MAC  --- 0 AODV 48 [0 ffffffff a 800] ------- [10:255 -1:255 26 0] [0x2 5 1 [8 0] [1 4]] (REQUEST)
r 0.041447418 _11_ MAC  --- 0 AODV 48 [0 ffffffff a 800] ------- [10:255 -1:255 26 0] [0x2 5 1 [8 0] [1 4]] (REQUEST)
r 0.041471855 _12_ RTR  --- 0 AODV 48 [0 ffffffff a 800] ------- [10:255 -1:255 26 0] [0x2 5 1 [8 0] [1 4]] (REQUEST)
r 0.041472392 _9_ RTR  --- 0 AODV 48 [0 ffffffff a 800] ------- [10:255 -1:255 26 0] [0x2 5 1 [8 0] [1 4]] (REQUEST)
r 0.041472418 _11_ RTR  --- 0 AODV 48 [0 ffffffff a 800] ------- [10:255 -1:255 26 0] [0x2 5 1 [8 0] [1 4]] (REQUEST)
s 0.042022019 _6_ MAC  --- 0 ARP 86 [0 ffffffff 6 806] ------- [REQUEST 6/6 0/1]
r 0.042710294 _4_ MAC  --- 0 ARP 28 [0 ffffffff 6 806] ------- [REQUEST 6/6 0/1]
r 0.042710685 _7_ MAC  --- 0 ARP 28 [0 ffffffff 6 806] ------- [REQUEST 6/6 0/1]
r 0.042710740 _3_ MAC  --- 0 ARP 28 [0 ffffffff 6 806] ------- [REQUEST 6/6 0/1]
r 0.042710824 _1_ MAC  --- 0 ARP 28 [0 ffffffff 6 806] ------- [REQUEST 6/6 0/1]
r 0.042710844 _2_ MAC  --- 0 ARP 28 [0 ffffffff 6 806] ------- [REQUEST 6/6 0/1]
s 0.042848637 _12_ RTR  --- 0 AODV 48 [0 ffffffff b 800] ------- [12:255 -1:255 26 0] [0x2 5 1 [8 0] [1 4]] (REQUEST)
s 0.043265824 _1_ MAC  --- 0 RTS 44 [52e 6 1 0] 
s 0.043405411 _12_ MAC  --- 0 AODV 106 [0 ffffffff c 800] ------- [12:255 -1:255 26 0] [0x2 5 1 [8 0] [1 4]] (REQUEST)
D 0.043406804 _6_ MAC  COL 0 RTS 44 [52e 6 1 0] 
r 0.044253544 _10_ MAC  --- 0 AODV 48 [0 ffffffff c 800] ------- [12:255 -1:255 26 0] [0x2 5 1 [8 0] [1 4]] (REQUEST)
D 0.044254081 _9_ MAC  COL 0 AODV 106 [0 ffffffff c 800] ------- [12:255 -1:255 26 0] [0x2 5 1 [8 0] [1 4]] (REQUEST)
r 0.044254081 _11_ MAC  --- 0 AODV 48 [0 ffffffff c 800] ------- [12:255 -1:255 26 0] [0x2 5 1 [8 0] [1 4]] (REQUEST)
r 0.044278544 _10_ RTR  --- 0 AODV 48 [0 ffffffff c 800] ------- [12:255 -1:255 26 0] [0x2 5 1 [8 0] [1 4]] (REQUEST)
r 0.044279081 _11_ RTR  --- 0 AODV 48 [0 ffffffff c 800] ------- [12:255 -1:255 26 0] [0x2 5 1 [8 0] [1 4]] (REQUEST)
s 0.044925824 _1_ MAC  --- 0 RTS 44 [52e 6 1 0] 
r 0.045278630 _6_ MAC  --- 0 RTS 44 [52e 6 1 0] 
s 0.045288630 _6_ MAC  --- 0 CTS 38 [3f4 1 0 0] 
r 0.045593435 _1_ MAC  --- 0 CTS 38 [3f4 1 0 0] 
s 0.045603435 _1_ MAC  --- 0 ARP 86 [13a 6 1 806] ------- [REPLY 1/1 6/6]
r 0.046292241 _6_ MAC  --- 0 ARP 28 [13a 6 1 806] ------- [REPLY 1/1 6/6]
s 0.046302241 _6_ MAC  --- 0 ACK 38 [0 1 0 0] 
r 0.046607046 _1_ MAC  --- 0 ACK 38 [0 1 0 0] 
s 0.047136241 _6_ MAC  --- 0 RTS 44 [5ae 1 6 0] 
r 0.047489046 _1_ MAC  --- 0 RTS 44 [5ae 1 6 0] 
s 0.047499046 _1_ MAC  --- 0 CTS 38 [474 6 0 0] 
r 0.047803852 _6_ MAC  --- 0 CTS 38 [474 6 0 0] 
s 0.047813852 _6_ MAC  --- 0 AODV 102 [13a 1 6 800] ------- [8:255 1:255 28 1] [0x4 3 [8 4] 10.000000] (REPLY)
r 0.048630657 _1_ MAC  --- 0 AODV 44 [13a 1 6 800] ------- [8:255 1:255 28 1] [0x4 3 [8 4] 10.000000] (REPLY)
s 0.048640657 _1_ MAC  --- 0 ACK 38 [0 6 0 0] 
r 0.048655657 _1_ RTR  --- 0 AODV 44 [13a 1 6 800] ------- [8:255 1:255 28 1] [0x4 3 [8 4] 10.000000] (REPLY)
s 0.048655657 _1_ RTR  --- 0 tcp 40 [0 0 0 0] ------- [1:0 8:0 30 6] [0 0] 0 0
r 0.048945463 _6_ MAC  --- 0 ACK 38 [0 6 0 0] 
s 0.049214657 _1_ MAC  --- 0 RTS 44 [58e 6 1 0] 
r 0.049567463 _6_ MAC  --- 0 RTS 44 [58e 6 1 0] 
s 0.049577463 _6_ MAC  --- 0 CTS 38 [454 1 0 0] 
r 0.049882269 _1_ MAC  --- 0 CTS 38 [454 1 0 0] 
s 0.049892269 _1_ MAC  --- 0 tcp 98 [13a 6 1 800] ------- [1:0 8:0 30 6] [0 0] 0 0
r 0.050677074 _6_ MAC  --- 0 tcp 40 [13a 6 1 800] ------- [1:0 8:0 30 6] [0 0] 1 0
s 0.050687074 _6_ MAC  --- 0 ACK 38 [0 1 0 0] 
r 0.050702074 _6_ RTR  --- 0 tcp 40 [13a 6 1 800] ------- [1:0 8:0 30 6] [0 0] 1 0
f 0.050702074 _6_ RTR  --- 0 tcp 40 [13a 6 1 800] ------- [1:0 8:0 29 7] [0 0] 1 0
r 0.050991880 _1_ MAC  --- 0 ACK 38 [0 1 0 0] 
s 0.051161074 _6_ MAC  --- 0 RTS 44 [58e 7 6 0] 
r 0.051513741 _7_ MAC  --- 0 RTS 44 [58e 7 6 0] 
s 0.051523741 _7_ MAC  --- 0 CTS 38 [454 6 0 0] 
r 0.051828407 _6_ MAC  --- 0 CTS 38 [454 6 0 0] 
s 0.051838407 _6_ MAC  --- 0 tcp 98 [13a 7 6 800] ------- [1:0 8:0 29 7] [0 0] 1 0
r 0.052623074 _7_ MAC  --- 0 tcp 40 [13a 7 6 800] ------- [1:0 8:0 29 7] [0 0] 2 0
s 0.052633074 _7_ MAC  --- 0 ACK 38 [0 6 0 0] 
r 0.052648074 _7_ RTR  --- 0 tcp 40 [13a 7 6 800] ------- [1:0 8:0 29 7] [0 0] 2 0
f 0.052648074 _7_ RTR  --- 0 tcp 40 [13a 7 6 800] ------- [1:0 8:0 28 8] [0 0] 2 0
r 0.052937741 _6_ MAC  --- 0 ACK 38 [0 6 0 0] 
s 0.053207074 _7_ MAC  --- 0 RTS 44 [58e 8 7 0] 
r 0.053559274 _8_ MAC  --- 0 RTS 44 [58e 8 7 0] 
s 0.053569274 _8_ MAC  --- 0 CTS 38 [454 7 0 0] 
r 0.053873474 _7_ MAC  --- 0 CTS 38 [454 7 0 0] 
s 0.053883474 _7_ MAC  --- 0 tcp 98 [13a 8 7 800] ------- [1:0 8:0 28 8] [0 0] 2 0
r 0.054667674 _8_ MAC  --- 0 tcp 40 [13a 8 7 800] ------- [1:0 8:0 28 8] [0 0] 3 0
s 0.054677674 _8_ MAC  --- 0 ACK 38 [0 7 0 0] 
r 0.054692674 _8_ AGT  --- 0 tcp 40 [13a 8 7 800] ------- [1:0 8:0 28 8] [0 0] 3 0
s 0.054692674 _8_ AGT  --- 1 ack 40 [0 0 0 0] ------- [8:0 1:0 32 0] [0 0] 0 0
r 0.054692674 _8_ RTR  --- 1 ack 40 [0 0 0 0] ------- [8:0 1:0 32 0] [0 0] 0 0
s 0.054692674 _8_ RTR  --- 1 ack 40 [0 0 0 0] ------- [8:0 1:0 30 7] [0 0] 0 0
r 0.054981874 _7_ MAC  --- 0 ACK 38 [0 7 0 0] 
s 0.055331674 _8_ MAC  --- 0 RTS 44 [58e 7 8 0] 
r 0.055683874 _7_ MAC  --- 0 RTS 44 [58e 7 8 0] 
s 0.055693874 _7_ MAC  --- 0 CTS 38 [454 8 0 0] 
r 0.055998074 _8_ MAC  --- 0 CTS 38 [454 8 0 0] 
s 0.056008074 _8_ MAC  --- 1 ack 98 [13a 7 8 800] ------- [8:0 1:0 30 7] [0 0] 0 0
r 0.056792274 _7_ MAC  --- 1 ack 40 [13a 7 8 800] ------- [8:0 1:0 30 7] [0 0] 1 0
s 0.056802274 _7_ MAC  --- 0 ACK 38 [0 8 0 0] 
r 0.056817274 _7_ RTR  --- 1 ack 40 [13a 7 8 800] ------- [8:0 1:0 30 7] [0 0] 1 0
f 0.056817274 _7_ RTR  --- 1 ack 40 [13a 7 8 800] ------- [8:0 1:0 29 6] [0 0] 1 0
r 0.057106474 _8_ MAC  --- 0 ACK 38 [0 8 0 0] 
s 0.057396274 _7_ MAC  --- 0 RTS 44 [58e 6 7 0] 
r 0.057748941 _6_ MAC  --- 0 RTS 44 [58e 6 7 0] 
s 0.057758941 _6_ MAC  --- 0 CTS 38 [454 7 0 0] 
r 0.058063607 _7_ MAC  --- 0 CTS 38 [454 7 0 0] 
s 0.058073607 _7_ MAC  --- 1 ack 98 [13a 6 7 800] ------- [8:0 1:0 29 6] [0 0] 1 0
r 0.058858274 _6_ MAC  --- 1 ack 40 [13a 6 7 800] ------- [8:0 1:0 29 6] [0 0] 2 0
s 0.058868274 _6_ MAC  --- 0 ACK 38 [0 7 0 0] 
r 0.058883274 _6_ RTR  --- 1 ack 40 [13a 6 7 800] ------- [8:0 1:0 29 6] [0 0] 2 0
f 0.058883274 _6_ RTR  --- 1 ack 40 [13a 6 7 800] ------- [8:0 1:0 28 1] [0 0] 2 0
r 0.059172941 _7_ MAC  --- 0 ACK 38 [0 7 0 0] 
s 0.059502274 _6_ MAC  --- 0 RTS 44 [58e 1 6 0] 
r 0.059855080 _1_ MAC  --- 0 RTS 44 [58e 1 6 0] 
s 0.059865080 _1_ MAC  --- 0 CTS 38 [454 6 0 0] 
r 0.060169885 _6_ MAC  --- 0 CTS 38 [454 6 0 0] 
s 0.060179885 _6_ MAC  --- 1 ack 98 [13a 1 6 800] ------- [8:0 1:0 28 1] [0 0] 2 0
r 0.060964691 _1_ MAC  --- 1 ack 40 [13a 1 6 800] ------- [8:0 1:0 28 1] [0 0] 3 0
s 0.060974691 _1_ MAC  --- 0 ACK 38 [0 6 0 0] 
r 0.060989691 _1_ AGT  --- 1 ack 40 [13a 1 6 800] ------- [8:0 1:0 28 1] [0 0] 3 0
s 0.060989691 _1_ AGT  --- 2 tcp 1040 [0 0 0 0] ------- [1:0 8:0 32 0] [1 0] 0 0
r 0.060989691 _1_ RTR  --- 2 tcp 1040 [0 0 0 0] ------- [1:0 8:0 32 0] [1 0] 0 0
s 0.060989691 _1_ AGT  --- 3 tcp 1040 [0 0 0 0] ------- [1:0 8:0 32 0] [2 0] 0 0
r 0.060989691 _1_ RTR  --- 3 tcp 1040 [0 0 0 0] ------- [1:0 8:0 32 0] [2 0] 0 0
s 0.060989691 _1_ RTR  --- 2 tcp 1040 [0 0 0 0] ------- [1:0 8:0 30 6] [1 0] 0 0
s 0.060989691 _1_ RTR  --- 3 tcp 1040 [0 0 0 0] ------- [1:0 8:0 30 6] [2 0] 0 0
r 0.061279496 _6_ MAC  --- 0 ACK 38 [0 6 0 0] 
s 0.061808691 _1_ MAC  --- 0 RTS 44 [24ce 6 1 0] 
r 0.062161496 _6_ MAC  --- 0 RTS 44 [24ce 6 1 0] 
s 0.062171496 _6_ MAC  --- 0 CTS 38 [2394 1 0 0] 
r 0.062476302 _1_ MAC  --- 0 CTS 38 [2394 1 0 0] 
s 0.062486302 _1_ MAC  --- 2 tcp 1098 [13a 6 1 800] ------- [1:0 8:0 30 6] [1 0] 0 0
r 0.071271107 _6_ MAC  --- 2 tcp 1040 [13a 6 1 800] ------- [1:0 8:0 30 6] [1 0] 1 0
s 0.071281107 _6_ MAC  --- 0 ACK 38 [0 1 0 0] 
r 0.071296107 _6_ RTR  --- 2 tcp 1040 [13a 6 1 800] ------- [1:0 8:0 30 6] [1 0] 1 0
f 0.071296107 _6_ RTR  --- 2 tcp 1040 [13a 6 1 800] ------- [1:0 8:0 29 7] [1 0] 1 0
r 0.071585913 _1_ MAC  --- 0 ACK 38 [0 1 0 0] 
s 0.071755107 _6_ MAC  --- 0 RTS 44 [24ce 7 6 0] 
r 0.072107774 _7_ MAC  --- 0 RTS 44 [24ce 7 6 0] 
s 0.072117774 _7_ MAC  --- 0 CTS 38 [2394 6 0 0] 
r 0.072422441 _6_ MAC  --- 0 CTS 38 [2394 6 0 0] 
s 0.072432441 _6_ MAC  --- 2 tcp 1098 [13a 7 6 800] ------- [1:0 8:0 29 7] [1 0] 1 0
r 0.081217107 _7_ MAC  --- 2 tcp 1040 [13a 7 6 800] ------- [1:0 8:0 29 7] [1 0] 2 0
s 0.081227107 _7_ MAC  --- 0 ACK 38 [0 6 0 0] 
r 0.081242107 _7_ RTR  --- 2 tcp 1040 [13a 7 6 800] ------- [1:0 8:0 29 7] [1 0] 2 0
f 0.081242107 _7_ RTR  --- 2 tcp 1040 [13a 7 6 800] ------- [1:0 8:0 28 8] [1 0] 2 0
r 0.081531774 _6_ MAC  --- 0 ACK 38 [0 6 0 0] 
s 0.081621107 _7_ MAC  --- 0 RTS 44 [24ce 8 7 0] 
r 0.081973307 _8_ MAC  --- 0 RTS 44 [24ce 8 7 0] 
s 0.081983307 _8_ MAC  --- 0 CTS 38 [2394 7 0 0] 
r 0.082287507 _7_ MAC  --- 0 CTS 38 [2394 7 0 0] 
s 0.082297507 _7_ MAC  --- 2 tcp 1098 [13a 8 7 800] ------- [1:0 8:0 28 8] [1 0] 2 0
r 0.091081707 _8_ MAC  --- 2 tcp 1040 [13a 8 7 800] ------- [1:0 8:0 28 8] [1 0] 3 0
s 0.091091707 _8_ MAC  --- 0 ACK 38 [0 7 0 0] 
r 0.091106707 _8_ AGT  --- 2 tcp 1040 [13a 8 7 800] ------- [1:0 8:0 28 8] [1 0] 3 0
s 0.091106707 _8_ AGT  --- 4 ack 40 [0 0 0 0] ------- [8:0 1:0 32 0] [1 0] 0 0
r 0.091106707 _8_ RTR  --- 4 ack 40 [0 0 0 0] ------- [8:0 1:0 32 0] [1 0] 0 0
s 0.091106707 _8_ RTR  --- 4 ack 40 [0 0 0 0] ------- [8:0 1:0 30 7] [1 0] 0 0
r 0.091395907 _7_ MAC  --- 0 ACK 38 [0 7 0 0] 
s 0.091565707 _8_ MAC  --- 0 RTS 44 [58e 7 8 0] 
r 0.091917907 _7_ MAC  --- 0 RTS 44 [58e 7 8 0] 
s 0.091927907 _7_ MAC  --- 0 CTS 38 [454 8 0 0] 
r 0.092232107 _8_ MAC  --- 0 CTS 38 [454 8 0 0] 
s 0.092242107 _8_ MAC  --- 4 ack 98 [13a 7 8 800] ------- [8:0 1:0 30 7] [1 0] 0 0
r 0.093026307 _7_ MAC  --- 4 ack 40 [13a 7 8 800] ------- [8:0 1:0 30 7] [1 0] 1 0
s 0.093036307 _7_ MAC  --- 0 ACK 38 [0 8 0 0] 
r 0.093051307 _7_ RTR  --- 4 ack 40 [13a 7 8 800] ------- [8:0 1:0 30 7] [1 0] 1 0
f 0.093051307 _7_ RTR  --- 4 ack 40 [13a 7 8 800] ------- [8:0 1:0 29 6] [1 0] 1 0
r 0.093340507 _8_ MAC  --- 0 ACK 38 [0 8 0 0] 
s 0.093470307 _7_ MAC  --- 0 RTS 44 [58e 6 7 0] 
r 0.093822974 _6_ MAC  --- 0 RTS 44 [58e 6 7 0] 
s 0.093832974 _6_ MAC  --- 0 CTS 38 [454 7 0 0] 
r 0.094137641 _7_ MAC  --- 0 CTS 38 [454 7 0 0] 
s 0.094147641 _7_ MAC  --- 4 ack 98 [13a 6 7 800] ------- [8:0 1:0 29 6] [1 0] 1 0
r 0.094932307 _6_ MAC  --- 4 ack 40 [13a 6 7 800] ------- [8:0 1:0 29 6] [1 0] 2 0
s 0.094942307 _6_ MAC  --- 0 ACK 38 [0 7 0 0] 
r 0.094957307 _6_ RTR  --- 4 ack 40 [13a 6 7 800] ------- [8:0 1:0 29 6] [1 0] 2 0
f 0.094957307 _6_ RTR  --- 4 ack 40 [13a 6 7 800] ------- [8:0 1:0 28 1] [1 0] 2 0
r 0.095246974 _7_ MAC  --- 0 ACK 38 [0 7 0 0] 
s 0.095527080 _1_ MAC  --- 0 RTS 44 [24ce 6 1 0] 
r 0.095879885 _6_ MAC  --- 0 RTS 44 [24ce 6 1 0] 
s 0.095889885 _6_ MAC  --- 0 CTS 38 [2394 1 0 0] 
r 0.096194691 _1_ MAC  --- 0 CTS 38 [2394 1 0 0] 
s 0.096204691 _1_ MAC  --- 3 tcp 1098 [13a 6 1 800] ------- [1:0 8:0 30 6] [2 0] 0 0
r 0.104989496 _6_ MAC  --- 3 tcp 1040 [13a 6 1 800] ------- [1:0 8:0 30 6] [2 0] 1 0
s 0.104999496 _6_ MAC  --- 0 ACK 38 [0 1 0 0] 
r 0.105014496 _6_ RTR  --- 3 tcp 1040 [13a 6 1 800] ------- [1:0 8:0 30 6] [2 0] 1 0
f 0.105014496 _6_ RTR  --- 3 tcp 1040 [13a 6 1 800] ------- [1:0 8:0 29 7] [2 0] 1 0
r 0.105304302 _1_ MAC  --- 0 ACK 38 [0 1 0 0] 
s 0.105533496 _6_ MAC  --- 0 RTS 44 [58e 1 6 0] 
r 0.105886302 _1_ MAC  --- 0 RTS 44 [58e 1 6 0] 
s 0.105896302 _1_ MAC  --- 0 CTS 38 [454 6 0 0] 
r 0.106201107 _6_ MAC  --- 0 CTS 38 [454 6 0 0] 
s 0.106211107 _6_ MAC  --- 4 ack 98 [13a 1 6 800] ------- [8:0 1:0 28 1] [1 0] 2 0
r 0.106995913 _1_ MAC  --- 4 ack 40 [13a 1 6 800] ------- [8:0 1:0 28 1] [1 0] 3 0
s 0.107005913 _1_ MAC  --- 0 ACK 38 [0 6 0 0] 
r 0.107020913 _1_ AGT  --- 4 ack 40 [13a 1 6 800] ------- [8:0 1:0 28 1] [1 0] 3 0
s 0.107020913 _1_ AGT  --- 5 tcp 1040 [0 0 0 0] ------- [1:0 8:0 32 0] [3 0] 0 0
r 0.107020913 _1_ RTR  --- 5 tcp 1040 [0 0 0 0] ------- [1:0 8:0 32 0] [3 0] 0 0
s 0.107020913 _1_ AGT  --- 6 tcp 1040 [0 0 0 0] ------- [1:0 8:0 32 0] [4 0] 0 0
r 0.107020913 _1_ RTR  --- 6 tcp 1040 [0 0 0 0] ------- [1:0 8:0 32 0] [4 0] 0 0
s 0.107020913 _1_ RTR  --- 5 tcp 1040 [0 0 0 0] ------- [1:0 8:0 30 6] [3 0] 0 0
s 0.107020913 _1_ RTR  --- 6 tcp 1040 [0 0 0 0] ------- [1:0 8:0 30 6] [4 0] 0 0
r 0.107310719 _6_ MAC  --- 0 ACK 38 [0 6 0 0] 
s 0.107459913 _1_ MAC  --- 0 RTS 44 [24ce 6 1 0] 
r 0.107812719 _6_ MAC  --- 0 RTS 44 [24ce 6 1 0] 
s 0.107822719 _6_ MAC  --- 0 CTS 38 [2394 1 0 0] 
r 0.108127524 _1_ MAC  --- 0 CTS 38 [2394 1 0 0] 
s 0.108137524 _1_ MAC  --- 5 tcp 1098 [13a 6 1 800] ------- [1:0 8:0 30 6] [3 0] 0 0
r 0.116922330 _6_ MAC  --- 5 tcp 1040 [13a 6 1 800] ------- [1:0 8:0 30 6] [3 0] 1 0
s 0.116932330 _6_ MAC  --- 0 ACK 38 [0 1 0 0] 
r 0.116947330 _6_ RTR  --- 5 tcp 1040 [13a 6 1 800] ------- [1:0 8:0 30 6] [3 0] 1 0
f 0.116947330 _6_ RTR  --- 5 tcp 1040 [13a 6 1 800] ------- [1:0 8:0 29 7] [3 0] 1 0
r 0.117237135 _1_ MAC  --- 0 ACK 38 [0 1 0 0] 
s 0.117347135 _1_ MAC  --- 0 RTS 44 [24ce 6 1 0] 
r 0.117699941 _6_ MAC  --- 0 RTS 44 [24ce 6 1 0] 
s 0.117709941 _6_ MAC  --- 0 CTS 38 [2394 1 0 0] 
r 0.118014746 _1_ MAC  --- 0 CTS 38 [2394 1 0 0] 
s 0.118024746 _1_ MAC  --- 6 tcp 1098 [13a 6 1 800] ------- [1:0 8:0 30 6] [4 0] 0 0
r 0.126809552 _6_ MAC  --- 6 tcp 1040 [13a 6 1 800] ------- [1:0 8:0 30 6] [4 0] 1 0
s 0.126819552 _6_ MAC  --- 0 ACK 38 [0 1 0 0] 