V -t * -v 1.0a5 -a 0
A -t * -n 1 -p 0 -o 0x7fffffff -c 30 -a 1
A -t * -h 1 -m 1073741823 -s 0
n -t * -a 4 -s 4 -S UP -v circle -c black -i black
n -t * -a 0 -s 0 -S UP -v circle -c black -i black
n -t * -a 5 -s 5 -S UP -v circle -c black -i black
n -t * -a 1 -s 1 -S UP -v circle -c black -i black
n -t * -a 6 -s 6 -S UP -v circle -c black -i black
n -t * -a 2 -s 2 -S UP -v circle -c black -i black
n -t * -a 3 -s 3 -S UP -v circle -c black -i black
l -t * -s 0 -d 1 -S UP -r 200000 -D 0.040000000000000001 -c black
l -t * -s 1 -d 2 -S UP -r 200000 -D 0.040000000000000001 -c black
l -t * -s 2 -d 3 -S UP -r 200000 -D 0.040000000000000001 -c black
l -t * -s 3 -d 4 -S UP -r 200000 -D 0.040000000000000001 -c black
l -t * -s 4 -d 5 -S UP -r 200000 -D 0.040000000000000001 -c black
l -t * -s 5 -d 6 -S UP -r 200000 -D 0.040000000000000001 -c black
+ -t 1 -s 0 -d 1 -p tcp -e 40 -c 0 -i 0 -a 0 -x {0.0 5.0 0 ------- null}
- -t 1 -s 0 -d 1 -p tcp -e 40 -c 0 -i 0 -a 0 -x {0.0 5.0 0 ------- null}
h -t 1 -s 0 -d 1 -p tcp -e 40 -c 0 -i 0 -a 0 -x {0.0 5.0 -1 ------- null}
r -t 1.0416 -s 0 -d 1 -p tcp -e 40 -c 0 -i 0 -a 0 -x {0.0 5.0 0 ------- null}
+ -t 1.0416 -s 1 -d 2 -p tcp -e 40 -c 0 -i 0 -a 0 -x {0.0 5.0 0 ------- null}
- -t 1.0416 -s 1 -d 2 -p tcp -e 40 -c 0 -i 0 -a 0 -x {0.0 5.0 0 ------- null}
h -t 1.0416 -s 1 -d 2 -p tcp -e 40 -c 0 -i 0 -a 0 -x {0.0 5.0 -1 ------- null}
r -t 1.0832 -s 1 -d 2 -p tcp -e 40 -c 0 -i 0 -a 0 -x {0.0 5.0 0 ------- null}
+ -t 1.0832 -s 2 -d 3 -p tcp -e 40 -c 0 -i 0 -a 0 -x {0.0 5.0 0 ------- null}
- -t 1.0832 -s 2 -d 3 -p tcp -e 40 -c 0 -i 0 -a 0 -x {0.0 5.0 0 ------- null}
h -t 1.0832 -s 2 -d 3 -p tcp -e 40 -c 0 -i 0 -a 0 -x {0.0 5.0 -1 ------- null}
r -t 1.1248 -s 2 -d 3 -p tcp -e 40 -c 0 -i 0 -a 0 -x {0.0 5.0 0 ------- null}
+ -t 1.1248 -s 3 -d 4 -p tcp -e 40 -c 0 -i 0 -a 0 -x {0.0 5.0 0 ------- null}
- -t 1.1248 -s 3 -d 4 -p tcp -e 40 -c 0 -i 0 -a 0 -x {0.0 5.0 0 ------- null}
h -t 1.1248 -s 3 -d 4 -p tcp -e 40 -c 0 -i 0 -a 0 -x {0.0 5.0 -1 ------- null}
r -t 1.1664 -s 3 -d 4 -p tcp -e 40 -c 0 -i 0 -a 0 -x {0.0 5.0 0 ------- null}
+ -t 1.1664 -s 4 -d 5 -p tcp -e 40 -c 0 -i 0 -a 0 -x {0.0 5.0 0 ------- null}
- -t 1.1664 -s 4 -d 5 -p tcp -e 40 -c 0 -i 0 -a 0 -x {0.0 5.0 0 ------- null}
h -t 1.1664 -s 4 -d 5 -p tcp -e 40 -c 0 -i 0 -a 0 -x {0.0 5.0 -1 ------- null}
r -t 1.208 -s 4 -d 5 -p tcp -e 40 -c 0 -i 0 -a 0 -x {0.0 5.0 0 ------- null}
+ -t 1.208 -s 5 -d 4 -p ack -e 40 -c 0 -i 1 -a 0 -x {5.0 0.0 0 ------- null}
- -t 1.208 -s 5 -d 4 -p ack -e 40 -c 0 -i 1 -a 0 -x {5.0 0.0 0 ------- null}
h -t 1.208 -s 5 -d 4 -p ack -e 40 -c 0 -i 1 -a 0 -x {5.0 0.0 -1 ------- null}
r -t 1.2496 -s 5 -d 4 -p ack -e 40 -c 0 -i 1 -a 0 -x {5.0 0.0 0 ------- null}
+ -t 1.2496 -s 4 -d 3 -p ack -e 40 -c 0 -i 1 -a 0 -x {5.0 0.0 0 ------- null}
- -t 1.2496 -s 4 -d 3 -p ack -e 40 -c 0 -i 1 -a 0 -x {5.0 0.0 0 ------- null}
h -t 1.2496 -s 4 -d 3 -p ack -e 40 -c 0 -i 1 -a 0 -x {5.0 0.0 -1 ------- null}
r -t 1.2912 -s 4 -d 3 -p ack -e 40 -c 0 -i 1 -a 0 -x {5.0 0.0 0 ------- null}
+ -t 1.2912 -s 3 -d 2 -p ack -e 40 -c 0 -i 1 -a 0 -x {5.0 0.0 0 ------- null}
- -t 1.2912 -s 3 -d 2 -p ack -e 40 -c 0 -i 1 -a 0 -x {5.0 0.0 0 ------- null}
h -t 1.2912 -s 3 -d 2 -p ack -e 40 -c 0 -i 1 -a 0 -x {5.0 0.0 -1 ------- null}
r -t 1.3328 -s 3 -d 2 -p ack -e 40 -c 0 -i 1 -a 0 -x {5.0 0.0 0 ------- null}
+ -t 1.3328 -s 2 -d 1 -p ack -e 40 -c 0 -i 1 -a 0 -x {5.0 0.0 0 ------- null}
- -t 1.3328 -s 2 -d 1 -p ack -e 40 -c 0 -i 1 -a 0 -x {5.0 0.0 0 ------- null}
h -t 1.3328 -s 2 -d 1 -p ack -e 40 -c 0 -i 1 -a 0 -x {5.0 0.0 -1 ------- null}
r -t 1.3744 -s 2 -d 1 -p ack -e 40 -c 0 -i 1 -a 0 -x {5.0 0.0 0 ------- null}
+ -t 1.3744 -s 1 -d 0 -p ack -e 40 -c 0 -i 1 -a 0 -x {5.0 0.0 0 ------- null}
- -t 1.3744 -s 1 -d 0 -p ack -e 40 -c 0 -i 1 -a 0 -x {5.0 0.0 0 ------- null}
h -t 1.3744 -s 1 -d 0 -p ack -e 40 -c 0 -i 1 -a 0 -x {5.0 0.0 -1 ------- null}
r -t 1.416 -s 1 -d 0 -p ack -e 40 -c 0 -i 1 -a 0 -x {5.0 0.0 0 ------- null}
+ -t 1.416 -s 0 -d 1 -p tcp -e 1040 -c 0 -i 2 -a 0 -x {0.0 5.0 1 ------- null}
- -t 1.416 -s 0 -d 1 -p tcp -e 1040 -c 0 -i 2 -a 0 -x {0.0 5.0 1 ------- null}
h -t 1.416 -s 0 -d 1 -p tcp -e 1040 -c 0 -i 2 -a 0 -x {0.0 5.0 -1 ------- null}
+ -t 1.416 -s 0 -d 1 -p tcp -e 1040 -c 0 -i 3 -a 0 -x {0.0 5.0 2 ------- null}
- -t 1.4576 -s 0 -d 1 -p tcp -e 1040 -c 0 -i 3 -a 0 -x {0.0 5.0 2 ------- null}
h -t 1.4576 -s 0 -d 1 -p tcp -e 1040 -c 0 -i 3 -a 0 -x {0.0 5.0 -1 ------- null}
r -t 1.4976 -s 0 -d 1 -p tcp -e 1040 -c 0 -i 2 -a 0 -x {0.0 5.0 1 ------- null}
+ -t 1.4976 -s 1 -d 2 -p tcp -e 1040 -c 0 -i 2 -a 0 -x {0.0 5.0 1 ------- null}
- -t 1.4976 -s 1 -d 2 -p tcp -e 1040 -c 0 -i 2 -a 0 -x {0.0 5.0 1 ------- null}
h -t 1.4976 -s 1 -d 2 -p tcp -e 1040 -c 0 -i 2 -a 0 -x {0.0 5.0 -1 ------- null}
r -t 1.5392 -s 0 -d 1 -p tcp -e 1040 -c 0 -i 3 -a 0 -x {0.0 5.0 2 ------- null}
+ -t 1.5392 -s 1 -d 2 -p tcp -e 1040 -c 0 -i 3 -a 0 -x {0.0 5.0 2 ------- null}
- -t 1.5392 -s 1 -d 2 -p tcp -e 1040 -c 0 -i 3 -a 0 -x {0.0 5.0 2 ------- null}
h -t 1.5392 -s 1 -d 2 -p tcp -e 1040 -c 0 -i 3 -a 0 -x {0.0 5.0 -1 ------- null}
r -t 1.5792 -s 1 -d 2 -p tcp -e 1040 -c 0 -i 2 -a 0 -x {0.0 5.0 1 ------- null}
+ -t 1.5792 -s 2 -d 3 -p tcp -e 1040 -c 0 -i 2 -a 0 -x {0.0 5.0 1 ------- null}
- -t 1.5792 -s 2 -d 3 -p tcp -e 1040 -c 0 -i 2 -a 0 -x {0.0 5.0 1 ------- null}
h -t 1.5792 -s 2 -d 3 -p tcp -e 1040 -c 0 -i 2 -a 0 -x {0.0 5.0 -1 ------- null}
r -t 1.6208 -s 1 -d 2 -p tcp -e 1040 -c 0 -i 3 -a 0 -x {0.0 5.0 2 ------- null}
+ -t 1.6208 -s 2 -d 3 -p tcp -e 1040 -c 0 -i 3 -a 0 -x {0.0 5.0 2 ------- null}
- -t 1.6208 -s 2 -d 3 -p tcp -e 1040 -c 0 -i 3 -a 0 -x {0.0 5.0 2 ------- null}
h -t 1.6208 -s 2 -d 3 -p tcp -e 1040 -c 0 -i 3 -a 0 -x {0.0 5.0 -1 ------- null}
r -t 1.6608 -s 2 -d 3 -p tcp -e 1040 -c 0 -i 2 -a 0 -x {0.0 5.0 1 ------- null}
+ -t 1.6608 -s 3 -d 4 -p tcp -e 1040 -c 0 -i 2 -a 0 -x {0.0 5.0 1 ------- null}
- -t 1.6608 -s 3 -d 4 -p tcp -e 1040 -c 0 -i 2 -a 0 -x {0.0 5.0 1 ------- null}
h -t 1.6608 -s 3 -d 4 -p tcp -e 1040 -c 0 -i 2 -a 0 -x {0.0 5.0 -1 ------- null}
r -t 1.7024 -s 2 -d 3 -p tcp -e 1040 -c 0 -i 3 -a 0 -x {0.0 5.0 2 ------- null}
+ -t 1.7024 -s 3 -d 4 -p tcp -e 1040 -c 0 -i 3 -a 0 -x {0.0 5.0 2 ------- null}
- -t 1.7024 -s 3 -d 4 -p tcp -e 1040 -c 0 -i 3 -a 0 -x {0.0 5.0 2 ------- null}
h -t 1.7024 -s 3 -d 4 -p tcp -e 1040 -c 0 -i 3 -a 0 -x {0.0 5.0 -1 ------- null}
r -t 1.7424 -s 3 -d 4 -p tcp -e 1040 -c 0 -i 2 -a 0 -x {0.0 5.0 1 ------- null}
+ -t 1.7424 -s 4 -d 5 -p tcp -e 1040 -c 0 -i 2 -a 0 -x {0.0 5.0 1 ------- null}
- -t 1.7424 -s 4 -d 5 -p tcp -e 1040 -c 0 -i 2 -a 0 -x {0.0 5.0 1 ------- null}
h -t 1.7424 -s 4 -d 5 -p tcp -e 1040 -c 0 -i 2 -a 0 -x {0.0 5.0 -1 ------- null}
r -t 1.784 -s 3 -d 4 -p tcp -e 1040 -c 0 -i 3 -a 0 -x {0.0 5.0 2 ------- null}
+ -t 1.784 -s 4 -d 5 -p tcp -e 1040 -c 0 -i 3 -a 0 -x {0.0 5.0 2 ------- null}
- -t 1.784 -s 4 -d 5 -p tcp -e 1040 -c 0 -i 3 -a 0 -x {0.0 5.0 2 ------- null}
h -t 1.784 -s 4 -d 5 -p tcp -e 1040 -c 0 -i 3 -a 0 -x {0.0 5.0 -1 ------- null}
r -t 1.824 -s 4 -d 5 -p tcp -e 1040 -c 0 -i 2 -a 0 -x {0.0 5.0 1 ------- null}
+ -t 1.824 -s 5 -d 4 -p ack -e 40 -c 0 -i 4 -a 0 -x {5.0 0.0 1 ------- null}
- -t 1.824 -s 5 -d 4 -p ack -e 40 -c 0 -i 4 -a 0 -x {5.0 0.0 1 ------- null}
h -t 1.824 -s 5 -d 4 -p ack -e 40 -c 0 -i 4 -a 0 -x {5.0 0.0 -1 ------- null}
r -t 1.8656 -s 5 -d 4 -p ack -e 40 -c 0 -i 4 -a 0 -x {5.0 0.0 1 ------- null}
+ -t 1.8656 -s 4 -d 3 -p ack -e 40 -c 0 -i 4 -a 0 -x {5.0 0.0 1 ------- null}
- -t 1.8656 -s 4 -d 3 -p ack -e 40 -c 0 -i 4 -a 0 -x {5.0 0.0 1 ------- null}
h -t 1.8656 -s 4 -d 3 -p ack -e 40 -c 0 -i 4 -a 0 -x {5.0 0.0 -1 ------- null}
r -t 1.8656 -s 4 -d 5 -p tcp -e 1040 -c 0 -i 3 -a 0 -x {0.0 5.0 2 ------- null}
+ -t 1.8656 -s 5 -d 4 -p ack -e 40 -c 0 -i 5 -a 0 -x {5.0 0.0 2 ------- null}
- -t 1.8656 -s 5 -d 4 -p ack -e 40 -c 0 -i 5 -a 0 -x {5.0 0.0 2 ------- null}
h -t 1.8656 -s 5 -d 4 -p ack -e 40 -c 0 -i 5 -a 0 -x {5.0 0.0 -1 ------- null}
r -t 1.9072 -s 4 -d 3 -p ack -e 40 -c 0 -i 4 -a 0 -x {5.0 0.0 1 ------- null}
+ -t 1.9072 -s 3 -d 2 -p ack -e 40 -c 0 -i 4 -a 0 -x {5.0 0.0 1 ------- null}
- -t 1.9072 -s 3 -d 2 -p ack -e 40 -c 0 -i 4 -a 0 -x {5.0 0.0 1 ------- null}
h -t 1.9072 -s 3 -d 2 -p ack -e 40 -c 0 -i 4 -a 0 -x {5.0 0.0 -1 ------- null}
r -t 1.9072 -s 5 -d 4 -p ack -e 40 -c 0 -i 5 -a 0 -x {5.0 0.0 2 ------- null}
+ -t 1.9072 -s 4 -d 3 -p ack -e 40 -c 0 -i 5 -a 0 -x {5.0 0.0 2 ------- null}
- -t 1.9072 -s 4 -d 3 -p ack -e 40 -c 0 -i 5 -a 0 -x {5.0 0.0 2 ------- null}
h -t 1.9072 -s 4 -d 3 -p ack -e 40 -c 0 -i 5 -a 0 -x {5.0 0.0 -1 ------- null}
r -t 1.9488 -s 3 -d 2 -p ack -e 40 -c 0 -i 4 -a 0 -x {5.0 0.0 1 ------- null}
+ -t 1.9488 -s 2 -d 1 -p ack -e 40 -c 0 -i 4 -a 0 -x {5.0 0.0 1 ------- null}
- -t 1.9488 -s 2 -d 1 -p ack -e 40 -c 0 -i 4 -a 0 -x {5.0 0.0 1 ------- null}
h -t 1.9488 -s 2 -d 1 -p ack -e 40 -c 0 -i 4 -a 0 -x {5.0 0.0 -1 ------- null}
r -t 1.9488 -s 4 -d 3 -p ack -e 40 -c 0 -i 5 -a 0 -x {5.0 0.0 2 ------- null}
+ -t 1.9488 -s 3 -d 2 -p ack -e 40 -c 0 -i 5 -a 0 -x {5.0 0.0 2 ------- null}
- -t 1.9488 -s 3 -d 2 -p ack -e 40 -c 0 -i 5 -a 0 -x {5.0 0.0 2 ------- null}
h -t 1.9488 -s 3 -d 2 -p ack -e 40 -c 0 -i 5 -a 0 -x {5.0 0.0 -1 ------- null}
r -t 1.9904 -s 2 -d 1 -p ack -e 40 -c 0 -i 4 -a 0 -x {5.0 0.0 1 ------- null}
+ -t 1.9904 -s 1 -d 0 -p ack -e 40 -c 0 -i 4 -a 0 -x {5.0 0.0 1 ------- null}
- -t 1.9904 -s 1 -d 0 -p ack -e 40 -c 0 -i 4 -a 0 -x {5.0 0.0 1 ------- null}
h -t 1.9904 -s 1 -d 0 -p ack -e 40 -c 0 -i 4 -a 0 -x {5.0 0.0 -1 ------- null}
r -t 1.9904 -s 3 -d 2 -p ack -e 40 -c 0 -i 5 -a 0 -x {5.0 0.0 2 ------- null}
+ -t 1.9904 -s 2 -d 1 -p ack -e 40 -c 0 -i 5 -a 0 -x {5.0 0.0 2 ------- null}
- -t 1.9904 -s 2 -d 1 -p ack -e 40 -c 0 -i 5 -a 0 -x {5.0 0.0 2 ------- null}
h -t 1.9904 -s 2 -d 1 -p ack -e 40 -c 0 -i 5 -a 0 -x {5.0 0.0 -1 ------- null}
r -t 2.032 -s 1 -d 0 -p ack -e 40 -c 0 -i 4 -a 0 -x {5.0 0.0 1 ------- null}
+ -t 2.032 -s 0 -d 1 -p tcp -e 1040 -c 0 -i 6 -a 0 -x {0.0 5.0 3 ------- null}
- -t 2.032 -s 0 -d 1 -p tcp -e 1040 -c 0 -i 6 -a 0 -x {0.0 5.0 3 ------- null}
h -t 2.032 -s 0 -d 1 -p tcp -e 1040 -c 0 -i 6 -a 0 -x {0.0 5.0 -1 ------- null}
+ -t 2.032 -s 0 -d 1 -p tcp -e 1040 -c 0 -i 7 -a 0 -x {0.0 5.0 4 ------- null}
r -t 2.032 -s 2 -d 1 -p ack -e 40 -c 0 -i 5 -a 0 -x {5.0 0.0 2 ------- null}
+ -t 2.032 -s 1 -d 0 -p ack -e 40 -c 0 -i 5 -a 0 -x {5.0 0.0 2 ------- null}
- -t 2.032 -s 1 -d 0 -p ack -e 40 -c 0 -i 5 -a 0 -x {5.0 0.0 2 ------- null}
h -t 2.032 -s 1 -d 0 -p ack -e 40 -c 0 -i 5 -a 0 -x {5.0 0.0 -1 ------- null}
- -t 2.0736 -s 0 -d 1 -p tcp -e 1040 -c 0 -i 7 -a 0 -x {0.0 5.0 4 ------- null}
h -t 2.0736 -s 0 -d 1 -p tcp -e 1040 -c 0 -i 7 -a 0 -x {0.0 5.0 -1 ------- null}
r -t 2.0736 -s 1 -d 0 -p ack -e 40 -c 0 -i 5 -a 0 -x {5.0 0.0 2 ------- null}
+ -t 2.0736 -s 0 -d 1 -p tcp -e 1040 -c 0 -i 8 -a 0 -x {0.0 5.0 5 ------- null}
+ -t 2.0736 -s 0 -d 1 -p tcp -e 1040 -c 0 -i 9 -a 0 -x {0.0 5.0 6 ------- null}
r -t 2.1136 -s 0 -d 1 -p tcp -e 1040 -c 0 -i 6 -a 0 -x {0.0 5.0 3 ------- null}
+ -t 2.1136 -s 1 -d 2 -p tcp -e 1040 -c 0 -i 6 -a 0 -x {0.0 5.0 3 ------- null}
- -t 2.1136 -s 1 -d 2 -p tcp -e 1040 -c 0 -i 6 -a 0 -x {0.0 5.0 3 ------- null}
h -t 2.1136 -s 1 -d 2 -p tcp -e 1040 -c 0 -i 6 -a 0 -x {0.0 5.0 -1 ------- null}
- -t 2.1152 -s 0 -d 1 -p tcp -e 1040 -c 0 -i 8 -a 0 -x {0.0 5.0 5 ------- null}
h -t 2.1152 -s 0 -d 1 -p tcp -e 1040 -c 0 -i 8 -a 0 -x {0.0 5.0 -1 ------- null}
r -t 2.1552 -s 0 -d 1 -p tcp -e 1040 -c 0 -i 7 -a 0 -x {0.0 5.0 4 ------- null}
+ -t 2.1552 -s 1 -d 2 -p tcp -e 1040 -c 0 -i 7 -a 0 -x {0.0 5.0 4 ------- null}
- -t 2.1552 -s 1 -d 2 -p tcp -e 1040 -c 0 -i 7 -a 0 -x {0.0 5.0 4 ------- null}
h -t 2.1552 -s 1 -d 2 -p tcp -e 1040 -c 0 -i 7 -a 0 -x {0.0 5.0 -1 ------- null}
- -t 2.1568 -s 0 -d 1 -p tcp -e 1040 -c 0 -i 9 -a 0 -x {0.0 5.0 6 ------- null}
h -t 2.1568 -s 0 -d 1 -p tcp -e 1040 -c 0 -i 9 -a 0 -x {0.0 5.0 -1 ------- null}
r -t 2.1952 -s 1 -d 2 -p tcp -e 1040 -c 0 -i 6 -a 0 -x {0.0 5.0 3 ------- null}
+ -t 2.1952 -s 2 -d 3 -p tcp -e 1040 -c 0 -i 6 -a 0 -x {0.0 5.0 3 ------- null}
- -t 2.1952 -s 2 -d 3 -p tcp -e 1040 -c 0 -i 6 -a 0 -x {0.0 5.0 3 ------- null}
h -t 2.1952 -s 2 -d 3 -p tcp -e 1040 -c 0 -i 6 -a 0 -x {0.0 5.0 -1 ------- null}
r -t 2.1968 -s 0 -d 1 -p tcp -e 1040 -c 0 -i 8 -a 0 -x {0.0 5.0 5 ------- null}
+ -t 2.1968 -s 1 -d 2 -p tcp -e 1040 -c 0 -i 8 -a 0 -x {0.0 5.0 5 ------- null}
- -t 2.1968 -s 1 -d 2 -p tcp -e 1040 -c 0 -i 8 -a 0 -x {0.0 5.0 5 ------- null}
h -t 2.1968 -s 1 -d 2 -p tcp -e 1040 -c 0 -i 8 -a 0 -x {0.0 5.0 -1 ------- null}
r -t 2.2368 -s 1 -d 2 -p tcp -e 1040 -c 0 -i 7 -a 0 -x {0.0 5.0 4 ------- null}
+ -t 2.2368 -s 2 -d 3 -p tcp -e 1040 -c 0 -i 7 -a 0 -x {0.0 5.0 4 ------- null}
- -t 2.2368 -s 2 -d 3 -p tcp -e 1040 -c 0 -i 7 -a 0 -x {0.0 5.0 4 ------- null}
h -t 2.2368 -s 2 -d 3 -p tcp -e 1040 -c 0 -i 7 -a 0 -x {0.0 5.0 -1 ------- null}
r -t 2.2384 -s 0 -d 1 -p tcp -e 1040 -c 0 -i 9 -a 0 -x {0.0 5.0 6 ------- null}
+ -t 2.2384 -s 1 -d 2 -p tcp -e 1040 -c 0 -i 9 -a 0 -x {0.0 5.0 6 ------- null}
- -t 2.2384 -s 1 -d 2 -p tcp -e 1040 -c 0 -i 9 -a 0 -x {0.0 5.0 6 ------- null}
h -t 2.2384 -s 1 -d 2 -p tcp -e 1040 -c 0 -i 9 -a 0 -x {0.0 5.0 -1 ------- null}
r -t 2.2768 -s 2 -d 3 -p tcp -e 1040 -c 0 -i 6 -a 0 -x {0.0 5.0 3 ------- null}
+ -t 2.2768 -s 3 -d 4 -p tcp -e 1040 -c 0 -i 6 -a 0 -x {0.0 5.0 3 ------- null}
- -t 2.2768 -s 3 -d 4 -p tcp -e 1040 -c 0 -i 6 -a 0 -x {0.0 5.0 3 ------- null}
h -t 2.2768 -s 3 -d 4 -p tcp -e 1040 -c 0 -i 6 -a 0 -x {0.0 5.0 -1 ------- null}
r -t 2.2784 -s 1 -d 2 -p tcp -e 1040 -c 0 -i 8 -a 0 -x {0.0 5.0 5 ------- null}
+ -t 2.2784 -s 2 -d 3 -p tcp -e 1040 -c 0 -i 8 -a 0 -x {0.0 5.0 5 ------- null}
- -t 2.2784 -s 2 -d 3 -p tcp -e 1040 -c 0 -i 8 -a 0 -x {0.0 5.0 5 ------- null}
h -t 2.2784 -s 2 -d 3 -p tcp -e 1040 -c 0 -i 8 -a 0 -x {0.0 5.0 -1 ------- null}
r -t 2.3184 -s 2 -d 3 -p tcp -e 1040 -c 0 -i 7 -a 0 -x {0.0 5.0 4 ------- null}
+ -t 2.3184 -s 3 -d 4 -p tcp -e 1040 -c 0 -i 7 -a 0 -x {0.0 5.0 4 ------- null}
- -t 2.3184 -s 3 -d 4 -p tcp -e 1040 -c 0 -i 7 -a 0 -x {0.0 5.0 4 ------- null}
h -t 2.3184 -s 3 -d 4 -p tcp -e 1040 -c 0 -i 7 -a 0 -x {0.0 5.0 -1 ------- null}
r -t 2.32 -s 1 -d 2 -p tcp -e 1040 -c 0 -i 9 -a 0 -x {0.0 5.0 6 ------- null}
+ -t 2.32 -s 2 -d 3 -p tcp -e 1040 -c 0 -i 9 -a 0 -x {0.0 5.0 6 ------- null}
- -t 2.32 -s 2 -d 3 -p tcp -e 1040 -c 0 -i 9 -a 0 -x {0.0 5.0 6 ------- null}
h -t 2.32 -s 2 -d 3 -p tcp -e 1040 -c 0 -i 9 -a 0 -x {0.0 5.0 -1 ------- null}
r -t 2.3584 -s 3 -d 4 -p tcp -e 1040 -c 0 -i 6 -a 0 -x {0.0 5.0 3 ------- null}
+ -t 2.3584 -s 4 -d 5 -p tcp -e 1040 -c 0 -i 6 -a 0 -x {0.0 5.0 3 ------- null}
- -t 2.3584 -s 4 -d 5 -p tcp -e 1040 -c 0 -i 6 -a 0 -x {0.0 5.0 3 ------- null}
h -t 2.3584 -s 4 -d 5 -p tcp -e 1040 -c 0 -i 6 -a 0 -x {0.0 5.0 -1 ------- null}
r -t 2.36 -s 2 -d 3 -p tcp -e 1040 -c 0 -i 8 -a 0 -x {0.0 5.0 5 ------- null}
+ -t 2.36 -s 3 -d 4 -p tcp -e 1040 -c 0 -i 8 -a 0 -x {0.0 5.0 5 ------- null}
- -t 2.36 -s 3 -d 4 -p tcp -e 1040 -c 0 -i 8 -a 0 -x {0.0 5.0 5 ------- null}
h -t 2.36 -s 3 -d 4 -p tcp -e 1040 -c 0 -i 8 -a 0 -x {0.0 5.0 -1 ------- null}
r -t 2.4 -s 3 -d 4 -p tcp -e 1040 -c 0 -i 7 -a 0 -x {0.0 5.0 4 ------- null}
+ -t 2.4 -s 4 -d 5 -p tcp -e 1040 -c 0 -i 7 -a 0 -x {0.0 5.0 4 ------- null}
- -t 2.4 -s 4 -d 5 -p tcp -e 1040 -c 0 -i 7 -a 0 -x {0.0 5.0 4 ------- null}
h -t 2.4 -s 4 -d 5 -p tcp -e 1040 -c 0 -i 7 -a 0 -x {0.0 5.0 -1 ------- null}
r -t 2.4016 -s 2 -d 3 -p tcp -e 1040 -c 0 -i 9 -a 0 -x {0.0 5.0 6 ------- null}
+ -t 2.4016 -s 3 -d 4 -p tcp -e 1040 -c 0 -i 9 -a 0 -x {0.0 5.0 6 ------- null}
- -t 2.4016 -s 3 -d 4 -p tcp -e 1040 -c 0 -i 9 -a 0 -x {0.0 5.0 6 ------- null}
h -t 2.4016 -s 3 -d 4 -p tcp -e 1040 -c 0 -i 9 -a 0 -x {0.0 5.0 -1 ------- null}
r -t 2.44 -s 4 -d 5 -p tcp -e 1040 -c 0 -i 6 -a 0 -x {0.0 5.0 3 ------- null}
+ -t 2.44 -s 5 -d 4 -p ack -e 40 -c 0 -i 10 -a 0 -x {5.0 0.0 3 ------- null}
- -t 2.44 -s 5 -d 4 -p ack -e 40 -c 0 -i 10 -a 0 -x {5.0 0.0 3 ------- null}
h -t 2.44 -s 5 -d 4 -p ack -e 40 -c 0 -i 10 -a 0 -x {5.0 0.0 -1 ------- null}
r -t 2.4416 -s 3 -d 4 -p tcp -e 1040 -c 0 -i 8 -a 0 -x {0.0 5.0 5 ------- null}
+ -t 2.4416 -s 4 -d 5 -p tcp -e 1040 -c 0 -i 8 -a 0 -x {0.0 5.0 5 ------- null}
- -t 2.4416 -s 4 -d 5 -p tcp -e 1040 -c 0 -i 8 -a 0 -x {0.0 5.0 5 ------- null}
h -t 2.4416 -s 4 -d 5 -p tcp -e 1040 -c 0 -i 8 -a 0 -x {0.0 5.0 -1 ------- null}
r -t 2.4816 -s 4 -d 5 -p tcp -e 1040 -c 0 -i 7 -a 0 -x {0.0 5.0 4 ------- null}
+ -t 2.4816 -s 5 -d 4 -p ack -e 40 -c 0 -i 11 -a 0 -x {5.0 0.0 4 ------- null}
- -t 2.4816 -s 5 -d 4 -p ack -e 40 -c 0 -i 11 -a 0 -x {5.0 0.0 4 ------- null}
h -t 2.4816 -s 5 -d 4 -p ack -e 40 -c 0 -i 11 -a 0 -x {5.0 0.0 -1 ------- null}
r -t 2.4816 -s 5 -d 4 -p ack -e 40 -c 0 -i 10 -a 0 -x {5.0 0.0 3 ------- null}
+ -t 2.4816 -s 4 -d 3 -p ack -e 40 -c 0 -i 10 -a 0 -x {5.0 0.0 3 ------- null}
- -t 2.4816 -s 4 -d 3 -p ack -e 40 -c 0 -i 10 -a 0 -x {5.0 0.0 3 ------- null}
h -t 2.4816 -s 4 -d 3 -p ack -e 40 -c 0 -i 10 -a 0 -x {5.0 0.0 -1 ------- null}
r -t 2.4832 -s 3 -d 4 -p tcp -e 1040 -c 0 -i 9 -a 0 -x {0.0 5.0 6 ------- null}
+ -t 2.4832 -s 4 -d 5 -p tcp -e 1040 -c 0 -i 9 -a 0 -x {0.0 5.0 6 ------- null}
- -t 2.4832 -s 4 -d 5 -p tcp -e 1040 -c 0 -i 9 -a 0 -x {0.0 5.0 6 ------- null}
h -t 2.4832 -s 4 -d 5 -p tcp -e 1040 -c 0 -i 9 -a 0 -x {0.0 5.0 -1 ------- null}
r -t 2.5232 -s 4 -d 5 -p tcp -e 1040 -c 0 -i 8 -a 0 -x {0.0 5.0 5 ------- null}
+ -t 2.5232 -s 5 -d 4 -p ack -e 40 -c 0 -i 12 -a 0 -x {5.0 0.0 5 ------- null}
- -t 2.5232 -s 5 -d 4 -p ack -e 40 -c 0 -i 12 -a 0 -x {5.0 0.0 5 ------- null}
h -t 2.5232 -s 5 -d 4 -p ack -e 40 -c 0 -i 12 -a 0 -x {5.0 0.0 -1 ------- null}
r -t 2.5232 -s 5 -d 4 -p ack -e 40 -c 0 -i 11 -a 0 -x {5.0 0.0 4 ------- null}
+ -t 2.5232 -s 4 -d 3 -p ack -e 40 -c 0 -i 11 -a 0 -x {5.0 0.0 4 ------- null}
- -t 2.5232 -s 4 -d 3 -p ack -e 40 -c 0 -i 11 -a 0 -x {5.0 0.0 4 ------- null}
h -t 2.5232 -s 4 -d 3 -p ack -e 40 -c 0 -i 11 -a 0 -x {5.0 0.0 -1 ------- null}
r -t 2.5232 -s 4 -d 3 -p ack -e 40 -c 0 -i 10 -a 0 -x {5.0 0.0 3 ------- null}
+ -t 2.5232 -s 3 -d 2 -p ack -e 40 -c 0 -i 10 -a 0 -x {5.0 0.0 3 ------- null}
- -t 2.5232 -s 3 -d 2 -p ack -e 40 -c 0 -i 10 -a 0 -x {5.0 0.0 3 ------- null}
h -t 2.5232 -s 3 -d 2 -p ack -e 40 -c 0 -i 10 -a 0 -x {5.0 0.0 -1 ------- null}
r -t 2.5648 -s 4 -d 5 -p tcp -e 1040 -c 0 -i 9 -a 0 -x {0.0 5.0 6 ------- null}
+ -t 2.5648 -s 5 -d 4 -p ack -e 40 -c 0 -i 13 -a 0 -x {5.0 0.0 6 ------- null}
- -t 2.5648 -s 5 -d 4 -p ack -e 40 -c 0 -i 13 -a 0 -x {5.0 0.0 6 ------- null}
h -t 2.5648 -s 5 -d 4 -p ack -e 40 -c 0 -i 13 -a 0 -x {5.0 0.0 -1 ------- null}
r -t 2.5648 -s 5 -d 4 -p ack -e 40 -c 0 -i 12 -a 0 -x {5.0 0.0 5 ------- null}
+ -t 2.5648 -s 4 -d 3 -p ack -e 40 -c 0 -i 12 -a 0 -x {5.0 0.0 5 ------- null}
- -t 2.5648 -s 4 -d 3 -p ack -e 40 -c 0 -i 12 -a 0 -x {5.0 0.0 5 ------- null}
h -t 2.5648 -s 4 -d 3 -p ack -e 40 -c 0 -i 12 -a 0 -x {5.0 0.0 -1 ------- null}
r -t 2.5648 -s 4 -d 3 -p ack -e 40 -c 0 -i 11 -a 0 -x {5.0 0.0 4 ------- null}
+ -t 2.5648 -s 3 -d 2 -p ack -e 40 -c 0 -i 11 -a 0 -x {5.0 0.0 4 ------- null}
- -t 2.5648 -s 3 -d 2 -p ack -e 40 -c 0 -i 11 -a 0 -x {5.0 0.0 4 ------- null}
h -t 2.5648 -s 3 -d 2 -p ack -e 40 -c 0 -i 11 -a 0 -x {5.0 0.0 -1 ------- null}
r -t 2.5648 -s 3 -d 2 -p ack -e 40 -c 0 -i 10 -a 0 -x {5.0 0.0 3 ------- null}
+ -t 2.5648 -s 2 -d 1 -p ack -e 40 -c 0 -i 10 -a 0 -x {5.0 0.0 3 ------- null}
- -t 2.5648 -s 2 -d 1 -p ack -e 40 -c 0 -i 10 -a 0 -x {5.0 0.0 3 ------- null}
h -t 2.5648 -s 2 -d 1 -p ack -e 40 -c 0 -i 10 -a 0 -x {5.0 0.0 -1 ------- null}
r -t 2.6064 -s 5 -d 4 -p ack -e 40 -c 0 -i 13 -a 0 -x {5.0 0.0 6 ------- null}
+ -t 2.6064 -s 4 -d 3 -p ack -e 40 -c 0 -i 13 -a 0 -x {5.0 0.0 6 ------- null}
- -t 2.6064 -s 4 -d 3 -p ack -e 40 -c 0 -i 13 -a 0 -x {5.0 0.0 6 ------- null}
h -t 2.6064 -s 4 -d 3 -p ack -e 40 -c 0 -i 13 -a 0 -x {5.0 0.0 -1 ------- null}
r -t 2.6064 -s 4 -d 3 -p ack -e 40 -c 0 -i 12 -a 0 -x {5.0 0.0 5 ------- null}
+ -t 2.6064 -s 3 -d 2 -p ack -e 40 -c 0 -i 12 -a 0 -x {5.0 0.0 5 ------- null}
- -t 2.6064 -s 3 -d 2 -p ack -e 40 -c 0 -i 12 -a 0 -x {5.0 0.0 5 ------- null}
h -t 2.6064 -s 3 -d 2 -p ack -e 40 -c 0 -i 12 -a 0 -x {5.0 0.0 -1 ------- null}
r -t 2.6064 -s 3 -d 2 -p ack -e 40 -c 0 -i 11 -a 0 -x {5.0 0.0 4 ------- null}
+ -t 2.6064 -s 2 -d 1 -p ack -e 40 -c 0 -i 11 -a 0 -x {5.0 0.0 4 ------- null}
- -t 2.6064 -s 2 -d 1 -p ack -e 40 -c 0 -i 11 -a 0 -x {5.0 0.0 4 ------- null}
h -t 2.6064 -s 2 -d 1 -p ack -e 40 -c 0 -i 11 -a 0 -x {5.0 0.0 -1 ------- null}
r -t 2.6064 -s 2 -d 1 -p ack -e 40 -c 0 -i 10 -a 0 -x {5.0 0.0 3 ------- null}
+ -t 2.6064 -s 1 -d 0 -p ack -e 40 -c 0 -i 10 -a 0 -x {5.0 0.0 3 ------- null}
- -t 2.6064 -s 1 -d 0 -p ack -e 40 -c 0 -i 10 -a 0 -x {5.0 0.0 3 ------- null}
h -t 2.6064 -s 1 -d 0 -p ack -e 40 -c 0 -i 10 -a 0 -x {5.0 0.0 -1 ------- null}
r -t 2.648 -s 4 -d 3 -p ack -e 40 -c 0 -i 13 -a 0 -x {5.0 0.0 6 ------- null}
+ -t 2.648 -s 3 -d 2 -p ack -e 40 -c 0 -i 13 -a 0 -x {5.0 0.0 6 ------- null}
- -t 2.648 -s 3 -d 2 -p ack -e 40 -c 0 -i 13 -a 0 -x {5.0 0.0 6 ------- null}
h -t 2.648 -s 3 -d 2 -p ack -e 40 -c 0 -i 13 -a 0 -x {5.0 0.0 -1 ------- null}
r -t 2.648 -s 3 -d 2 -p ack -e 40 -c 0 -i 12 -a 0 -x {5.0 0.0 5 ------- null}
+ -t 2.648 -s 2 -d 1 -p ack -e 40 -c 0 -i 12 -a 0 -x {5.0 0.0 5 ------- null}
- -t 2.648 -s 2 -d 1 -p ack -e 40 -c 0 -i 12 -a 0 -x {5.0 0.0 5 ------- null}
h -t 2.648 -s 2 -d 1 -p ack -e 40 -c 0 -i 12 -a 0 -x {5.0 0.0 -1 ------- null}
r -t 2.648 -s 2 -d 1 -p ack -e 40 -c 0 -i 11 -a 0 -x {5.0 0.0 4 ------- null}
+ -t 2.648 -s 1 -d 0 -p ack -e 40 -c 0 -i 11 -a 0 -x {5.0 0.0 4 ------- null}
- -t 2.648 -s 1 -d 0 -p ack -e 40 -c 0 -i 11 -a 0 -x {5.0 0.0 4 ------- null}
h -t 2.648 -s 1 -d 0 -p ack -e 40 -c 0 -i 11 -a 0 -x {5.0 0.0 -1 ------- null}
r -t 2.648 -s 1 -d 0 -p ack -e 40 -c 0 -i 10 -a 0 -x {5.0 0.0 3 ------- null}
+ -t 2.648 -s 0 -d 1 -p tcp -e 1040 -c 0 -i 14 -a 0 -x {0.0 5.0 7 ------- null}
- -t 2.648 -s 0 -d 1 -p tcp -e 1040 -c 0 -i 14 -a 0 -x {0.0 5.0 7 ------- null}
h -t 2.648 -s 0 -d 1 -p tcp -e 1040 -c 0 -i 14 -a 0 -x {0.0 5.0 -1 ------- null}
+ -t 2.648 -s 0 -d 1 -p tcp -e 1040 -c 0 -i 15 -a 0 -x {0.0 5.0 8 ------- null}
r -t 2.6896 -s 3 -d 2 -p ack -e 40 -c 0 -i 13 -a 0 -x {5.0 0.0 6 ------- null}
+ -t 2.6896 -s 2 -d 1 -p ack -e 40 -c 0 -i 13 -a 0 -x {5.0 0.0 6 ------- null}
- -t 2.6896 -s 2 -d 1 -p ack -e 40 -c 0 -i 13 -a 0 -x {5.0 0.0 6 ------- null}
h -t 2.6896 -s 2 -d 1 -p ack -e 40 -c 0 -i 13 -a 0 -x {5.0 0.0 -1 ------- null}
r -t 2.6896 -s 2 -d 1 -p ack -e 40 -c 0 -i 12 -a 0 -x {5.0 0.0 5 ------- null}
+ -t 2.6896 -s 1 -d 0 -p ack -e 40 -c 0 -i 12 -a 0 -x {5.0 0.0 5 ------- null}
- -t 2.6896 -s 1 -d 0 -p ack -e 40 -c 0 -i 12 -a 0 -x {5.0 0.0 5 ------- null}
h -t 2.6896 -s 1 -d 0 -p ack -e 40 -c 0 -i 12 -a 0 -x {5.0 0.0 -1 ------- null}
r -t 2.6896 -s 1 -d 0 -p ack -e 40 -c 0 -i 11 -a 0 -x {5.0 0.0 4 ------- null}
+ -t 2.6896 -s 0 -d 1 -p tcp -e 1040 -c 0 -i 16 -a 0 -x {0.0 5.0 9 ------- null}
+ -t 2.6896 -s 0 -d 1 -p tcp -e 1040 -c 0 -i 17 -a 0 -x {0.0 5.0 10 ------- null}
- -t 2.6896 -s 0 -d 1 -p tcp -e 1040 -c 0 -i 15 -a 0 -x {0.0 5.0 8 ------- null}
h -t 2.6896 -s 0 -d 1 -p tcp -e 1040 -c 0 -i 15 -a 0 -x {0.0 5.0 -1 ------- null}
r -t 2.7296 -s 0 -d 1 -p tcp -e 1040 -c 0 -i 14 -a 0 -x {0.0 5.0 7 ------- null}
+ -t 2.7296 -s 1 -d 2 -p tcp -e 1040 -c 0 -i 14 -a 0 -x {0.0 5.0 7 ------- null}
- -t 2.7296 -s 1 -d 2 -p tcp -e 1040 -c 0 -i 14 -a 0 -x {0.0 5.0 7 ------- null}
h -t 2.7296 -s 1 -d 2 -p tcp -e 1040 -c 0 -i 14 -a 0 -x {0.0 5.0 -1 ------- null}
r -t 2.7312 -s 2 -d 1 -p ack -e 40 -c 0 -i 13 -a 0 -x {5.0 0.0 6 ------- null}
+ -t 2.7312 -s 1 -d 0 -p ack -e 40 -c 0 -i 13 -a 0 -x {5.0 0.0 6 ------- null}
- -t 2.7312 -s 1 -d 0 -p ack -e 40 -c 0 -i 13 -a 0 -x {5.0 0.0 6 ------- null}
h -t 2.7312 -s 1 -d 0 -p ack -e 40 -c 0 -i 13 -a 0 -x {5.0 0.0 -1 ------- null}
r -t 2.7312 -s 1 -d 0 -p ack -e 40 -c 0 -i 12 -a 0 -x {5.0 0.0 5 ------- null}
+ -t 2.7312 -s 0 -d 1 -p tcp -e 1040 -c 0 -i 18 -a 0 -x {0.0 5.0 11 ------- null}
+ -t 2.7312 -s 0 -d 1 -p tcp -e 1040 -c 0 -i 19 -a 0 -x {0.0 5.0 12 ------- null}
- -t 2.7312 -s 0 -d 1 -p tcp -e 1040 -c 0 -i 16 -a 0 -x {0.0 5.0 9 ------- null}
h -t 2.7312 -s 0 -d 1 -p tcp -e 1040 -c 0 -i 16 -a 0 -x {0.0 5.0 -1 ------- null}
r -t 2.7712 -s 0 -d 1 -p tcp -e 1040 -c 0 -i 15 -a 0 -x {0.0 5.0 8 ------- null}
+ -t 2.7712 -s 1 -d 2 -p tcp -e 1040 -c 0 -i 15 -a 0 -x {0.0 5.0 8 ------- null}
- -t 2.7712 -s 1 -d 2 -p tcp -e 1040 -c 0 -i 15 -a 0 -x {0.0 5.0 8 ------- null}
h -t 2.7712 -s 1 -d 2 -p tcp -e 1040 -c 0 -i 15 -a 0 -x {0.0 5.0 -1 ------- null}
r -t 2.7728 -s 1 -d 0 -p ack -e 40 -c 0 -i 13 -a 0 -x {5.0 0.0 6 ------- null}
+ -t 2.7728 -s 0 -d 1 -p tcp -e 1040 -c 0 -i 20 -a 0 -x {0.0 5.0 13 ------- null}
+ -t 2.7728 -s 0 -d 1 -p tcp -e 1040 -c 0 -i 21 -a 0 -x {0.0 5.0 14 ------- null}
- -t 2.7728 -s 0 -d 1 -p tcp -e 1040 -c 0 -i 17 -a 0 -x {0.0 5.0 10 ------- null}
h -t 2.7728 -s 0 -d 1 -p tcp -e 1040 -c 0 -i 17 -a 0 -x {0.0 5.0 -1 ------- null}
r -t 2.8112 -s 1 -d 2 -p tcp -e 1040 -c 0 -i 14 -a 0 -x {0.0 5.0 7 ------- null}
+ -t 2.8112 -s 2 -d 3 -p tcp -e 1040 -c 0 -i 14 -a 0 -x {0.0 5.0 7 ------- null}
- -t 2.8112 -s 2 -d 3 -p tcp -e 1040 -c 0 -i 14 -a 0 -x {0.0 5.0 7 ------- null}
h -t 2.8112 -s 2 -d 3 -p tcp -e 1040 -c 0 -i 14 -a 0 -x {0.0 5.0 -1 ------- null}
r -t 2.8128 -s 0 -d 1 -p tcp -e 1040 -c 0 -i 16 -a 0 -x {0.0 5.0 9 ------- null}
+ -t 2.8128 -s 1 -d 2 -p tcp -e 1040 -c 0 -i 16 -a 0 -x {0.0 5.0 9 ------- null}
- -t 2.8128 -s 1 -d 2 -p tcp -e 1040 -c 0 -i 16 -a 0 -x {0.0 5.0 9 ------- null}
h -t 2.8128 -s 1 -d 2 -p tcp -e 1040 -c 0 -i 16 -a 0 -x {0.0 5.0 -1 ------- null}
- -t 2.8144 -s 0 -d 1 -p tcp -e 1040 -c 0 -i 18 -a 0 -x {0.0 5.0 11 ------- null}
h -t 2.8144 -s 0 -d 1 -p tcp -e 1040 -c 0 -i 18 -a 0 -x {0.0 5.0 -1 ------- null}
r -t 2.8528 -s 1 -d 2 -p tcp -e 1040 -c 0 -i 15 -a 0 -x {0.0 5.0 8 ------- null}
+ -t 2.8528 -s 2 -d 3 -p tcp -e 1040 -c 0 -i 15 -a 0 -x {0.0 5.0 8 ------- null}
- -t 2.8528 -s 2 -d 3 -p tcp -e 1040 -c 0 -i 15 -a 0 -x {0.0 5.0 8 ------- null}
h -t 2.8528 -s 2 -d 3 -p tcp -e 1040 -c 0 -i 15 -a 0 -x {0.0 5.0 -1 ------- null}
r -t 2.8544 -s 0 -d 1 -p tcp -e 1040 -c 0 -i 17 -a 0 -x {0.0 5.0 10 ------- null}
+ -t 2.8544 -s 1 -d 2 -p tcp -e 1040 -c 0 -i 17 -a 0 -x {0.0 5.0 10 ------- null}
- -t 2.8544 -s 1 -d 2 -p tcp -e 1040 -c 0 -i 17 -a 0 -x {0.0 5.0 10 ------- null}
h -t 2.8544 -s 1 -d 2 -p tcp -e 1040 -c 0 -i 17 -a 0 -x {0.0 5.0 -1 ------- null}
- -t 2.856 -s 0 -d 1 -p tcp -e 1040 -c 0 -i 19 -a 0 -x {0.0 5.0 12 ------- null}
h -t 2.856 -s 0 -d 1 -p tcp -e 1040 -c 0 -i 19 -a 0 -x {0.0 5.0 -1 ------- null}
r -t 2.8928 -s 2 -d 3 -p tcp -e 1040 -c 0 -i 14 -a 0 -x {0.0 5.0 7 ------- null}
+ -t 2.8928 -s 3 -d 4 -p tcp -e 1040 -c 0 -i 14 -a 0 -x {0.0 5.0 7 ------- null}
- -t 2.8928 -s 3 -d 4 -p tcp -e 1040 -c 0 -i 14 -a 0 -x {0.0 5.0 7 ------- null}
h -t 2.8928 -s 3 -d 4 -p tcp -e 1040 -c 0 -i 14 -a 0 -x {0.0 5.0 -1 ------- null}
r -t 2.8944 -s 1 -d 2 -p tcp -e 1040 -c 0 -i 16 -a 0 -x {0.0 5.0 9 ------- null}
+ -t 2.8944 -s 2 -d 3 -p tcp -e 1040 -c 0 -i 16 -a 0 -x {0.0 5.0 9 ------- null}
- -t 2.8944 -s 2 -d 3 -p tcp -e 1040 -c 0 -i 16 -a 0 -x {0.0 5.0 9 ------- null}
h -t 2.8944 -s 2 -d 3 -p tcp -e 1040 -c 0 -i 16 -a 0 -x {0.0 5.0 -1 ------- null}
r -t 2.896 -s 0 -d 1 -p tcp -e 1040 -c 0 -i 18 -a 0 -x {0.0 5.0 11 ------- null}
+ -t 2.896 -s 1 -d 2 -p tcp -e 1040 -c 0 -i 18 -a 0 -x {0.0 5.0 11 ------- null}
- -t 2.896 -s 1 -d 2 -p tcp -e 1040 -c 0 -i 18 -a 0 -x {0.0 5.0 11 ------- null}
h -t 2.896 -s 1 -d 2 -p tcp -e 1040 -c 0 -i 18 -a 0 -x {0.0 5.0 -1 ------- null}
- -t 2.8976 -s 0 -d 1 -p tcp -e 1040 -c 0 -i 20 -a 0 -x {0.0 5.0 13 ------- null}
h -t 2.8976 -s 0 -d 1 -p tcp -e 1040 -c 0 -i 20 -a 0 -x {0.0 5.0 -1 ------- null}
r -t 2.9344 -s 2 -d 3 -p tcp -e 1040 -c 0 -i 15 -a 0 -x {0.0 5.0 8 ------- null}
+ -t 2.9344 -s 3 -d 4 -p tcp -e 1040 -c 0 -i 15 -a 0 -x {0.0 5.0 8 ------- null}
- -t 2.9344 -s 3 -d 4 -p tcp -e 1040 -c 0 -i 15 -a 0 -x {0.0 5.0 8 ------- null}
h -t 2.9344 -s 3 -d 4 -p tcp -e 1040 -c 0 -i 15 -a 0 -x {0.0 5.0 -1 ------- null}
r -t 2.936 -s 1 -d 2 -p tcp -e 1040 -c 0 -i 17 -a 0 -x {0.0 5.0 10 ------- null}
+ -t 2.936 -s 2 -d 3 -p tcp -e 1040 -c 0 -i 17 -a 0 -x {0.0 5.0 10 ------- null}
- -t 2.936 -s 2 -d 3 -p tcp -e 1040 -c 0 -i 17 -a 0 -x {0.0 5.0 10 ------- null}
h -t 2.936 -s 2 -d 3 -p tcp -e 1040 -c 0 -i 17 -a 0 -x {0.0 5.0 -1 ------- null}
r -t 2.9376 -s 0 -d 1 -p tcp -e 1040 -c 0 -i 19 -a 0 -x {0.0 5.0 12 ------- null}
+ -t 2.9376 -s 1 -d 2 -p tcp -e 1040 -c 0 -i 19 -a 0 -x {0.0 5.0 12 ------- null}
- -t 2.9376 -s 1 -d 2 -p tcp -e 1040 -c 0 -i 19 -a 0 -x {0.0 5.0 12 ------- null}
h -t 2.9376 -s 1 -d 2 -p tcp -e 1040 -c 0 -i 19 -a 0 -x {0.0 5.0 -1 ------- null}
- -t 2.9392 -s 0 -d 1 -p tcp -e 1040 -c 0 -i 21 -a 0 -x {0.0 5.0 14 ------- null}
h -t 2.9392 -s 0 -d 1 -p tcp -e 1040 -c 0 -i 21 -a 0 -x {0.0 5.0 -1 ------- null}
r -t 2.9744 -s 3 -d 4 -p tcp -e 1040 -c 0 -i 14 -a 0 -x {0.0 5.0 7 ------- null}
+ -t 2.9744 -s 4 -d 5 -p tcp -e 1040 -c 0 -i 14 -a 0 -x {0.0 5.0 7 ------- null}
- -t 2.9744 -s 4 -d 5 -p tcp -e 1040 -c 0 -i 14 -a 0 -x {0.0 5.0 7 ------- null}
h -t 2.9744 -s 4 -d 5 -p tcp -e 1040 -c 0 -i 14 -a 0 -x {0.0 5.0 -1 ------- null}
r -t 2.976 -s 2 -d 3 -p tcp -e 1040 -c 0 -i 16 -a 0 -x {0.0 5.0 9 ------- null}
+ -t 2.976 -s 3 -d 4 -p tcp -e 1040 -c 0 -i 16 -a 0 -x {0.0 5.0 9 ------- null}
- -t 2.976 -s 3 -d 4 -p tcp -e 1040 -c 0 -i 16 -a 0 -x {0.0 5.0 9 ------- null}
h -t 2.976 -s 3 -d 4 -p tcp -e 1040 -c 0 -i 16 -a 0 -x {0.0 5.0 -1 ------- null}
r -t 2.9776 -s 1 -d 2 -p tcp -e 1040 -c 0 -i 18 -a 0 -x {0.0 5.0 11 ------- null}
+ -t 2.9776 -s 2 -d 3 -p tcp -e 1040 -c 0 -i 18 -a 0 -x {0.0 5.0 11 ------- null}
- -t 2.9776 -s 2 -d 3 -p tcp -e 1040 -c 0 -i 18 -a 0 -x {0.0 5.0 11 ------- null}
h -t 2.9776 -s 2 -d 3 -p tcp -e 1040 -c 0 -i 18 -a 0 -x {0.0 5.0 -1 ------- null}
r -t 2.9792 -s 0 -d 1 -p tcp -e 1040 -c 0 -i 20 -a 0 -x {0.0 5.0 13 ------- null}
+ -t 2.9792 -s 1 -d 2 -p tcp -e 1040 -c 0 -i 20 -a 0 -x {0.0 5.0 13 ------- null}