+ 1 0 1 tcp 40 ------- 0 0.0 5.0 0 0
- 1 0 1 tcp 40 ------- 0 0.0 5.0 0 0
r 1.0416 0 1 tcp 40 ------- 0 0.0 5.0 0 0
+ 1.0416 1 2 tcp 40 ------- 0 0.0 5.0 0 0
- 1.0416 1 2 tcp 40 ------- 0 0.0 5.0 0 0
r 1.0832 1 2 tcp 40 ------- 0 0.0 5.0 0 0
+ 1.0832 2 3 tcp 40 ------- 0 0.0 5.0 0 0
- 1.0832 2 3 tcp 40 ------- 0 0.0 5.0 0 0
r 1.1248 2 3 tcp 40 ------- 0 0.0 5.0 0 0
+ 1.1248 3 4 tcp 40 ------- 0 0.0 5.0 0 0
- 1.1248 3 4 tcp 40 ------- 0 0.0 5.0 0 0
r 1.1664 3 4 tcp 40 ------- 0 0.0 5.0 0 0
+ 1.1664 4 5 tcp 40 ------- 0 0.0 5.0 0 0
- 1.1664 4 5 tcp 40 ------- 0 0.0 5.0 0 0
r 1.208 4 5 tcp 40 ------- 0 0.0 5.0 0 0
+ 1.208 5 4 ack 40 ------- 0 5.0 0.0 0 1
- 1.208 5 4 ack 40 ------- 0 5.0 0.0 0 1
r 1.2496 5 4 ack 40 ------- 0 5.0 0.0 0 1
+ 1.2496 4 3 ack 40 ------- 0 5.0 0.0 0 1
- 1.2496 4 3 ack 40 ------- 0 5.0 0.0 0 1
r 1.2912 4 3 ack 40 ------- 0 5.0 0.0 0 1
+ 1.2912 3 2 ack 40 ------- 0 5.0 0.0 0 1
- 1.2912 3 2 ack 40 ------- 0 5.0 0.0 0 1
r 1.3328 3 2 ack 40 ------- 0 5.0 0.0 0 1
+ 1.3328 2 1 ack 40 ------- 0 5.0 0.0 0 1
- 1.3328 2 1 ack 40 ------- 0 5.0 0.0 0 1
r 1.3744 2 1 ack 40 ------- 0 5.0 0.0 0 1
+ 1.3744 1 0 ack 40 ------- 0 5.0 0.0 0 1
- 1.3744 1 0 ack 40 ------- 0 5.0 0.0 0 1
r 1.416 1 0 ack 40 ------- 0 5.0 0.0 0 1
+ 1.416 0 1 tcp 1040 ------- 0 0.0 5.0 1 2
- 1.416 0 1 tcp 1040 ------- 0 0.0 5.0 1 2
+ 1.416 0 1 tcp 1040 ------- 0 0.0 5.0 2 3
- 1.4576 0 1 tcp 1040 ------- 0 0.0 5.0 2 3
r 1.4976 0 1 tcp 1040 ------- 0 0.0 5.0 1 2
+ 1.4976 1 2 tcp 1040 ------- 0 0.0 5.0 1 2
- 1.4976 1 2 tcp 1040 ------- 0 0.0 5.0 1 2
r 1.5392 0 1 tcp 1040 ------- 0 0.0 5.0 2 3
+ 1.5392 1 2 tcp 1040 ------- 0 0.0 5.0 2 3
- 1.5392 1 2 tcp 1040 ------- 0 0.0 5.0 2 3
r 1.5792 1 2 tcp 1040 ------- 0 0.0 5.0 1 2
+ 1.5792 2 3 tcp 1040 ------- 0 0.0 5.0 1 2
- 1.5792 2 3 tcp 1040 ------- 0 0.0 5.0 1 2
r 1.6208 1 2 tcp 1040 ------- 0 0.0 5.0 2 3
+ 1.6208 2 3 tcp 1040 ------- 0 0.0 5.0 2 3
- 1.6208 2 3 tcp 1040 ------- 0 0.0 5.0 2 3
r 1.6608 2 3 tcp 1040 ------- 0 0.0 5.0 1 2
+ 1.6608 3 4 tcp 1040 ------- 0 0.0 5.0 1 2
- 1.6608 3 4 tcp 1040 ------- 0 0.0 5.0 1 2
r 1.7024 2 3 tcp 1040 ------- 0 0.0 5.0 2 3
+ 1.7024 3 4 tcp 1040 ------- 0 0.0 5.0 2 3
- 1.7024 3 4 tcp 1040 ------- 0 0.0 5.0 2 3
r 1.7424 3 4 tcp 1040 ------- 0 0.0 5.0 1 2
+ 1.7424 4 5 tcp 1040 ------- 0 0.0 5.0 1 2
- 1.7424 4 5 tcp 1040 ------- 0 0.0 5.0 1 2
r 1.784 3 4 tcp 1040 ------- 0 0.0 5.0 2 3
+ 1.784 4 5 tcp 1040 ------- 0 0.0 5.0 2 3
- 1.784 4 5 tcp 1040 ------- 0 0.0 5.0 2 3
r 1.824 4 5 tcp 1040 ------- 0 0.0 5.0 1 2
+ 1.824 5 4 ack 40 ------- 0 5.0 0.0 1 4
- 1.824 5 4 ack 40 ------- 0 5.0 0.0 1 4
r 1.8656 5 4 ack 40 ------- 0 5.0 0.0 1 4
+ 1.8656 4 3 ack 40 ------- 0 5.0 0.0 1 4
- 1.8656 4 3 ack 40 ------- 0 5.0 0.0 1 4
r 1.8656 4 5 tcp 1040 ------- 0 0.0 5.0 2 3
+ 1.8656 5 4 ack 40 ------- 0 5.0 0.0 2 5
- 1.8656 5 4 ack 40 ------- 0 5.0 0.0 2 5
r 1.9072 4 3 ack 40 ------- 0 5.0 0.0 1 4
+ 1.9072 3 2 ack 40 ------- 0 5.0 0.0 1 4
- 1.9072 3 2 ack 40 ------- 0 5.0 0.0 1 4
r 1.9072 5 4 ack 40 ------- 0 5.0 0.0 2 5
+ 1.9072 4 3 ack 40 ------- 0 5.0 0.0 2 5
- 1.9072 4 3 ack 40 ------- 0 5.0 0.0 2 5
r 1.9488 3 2 ack 40 ------- 0 5.0 0.0 1 4
+ 1.9488 2 1 ack 40 ------- 0 5.0 0.0 1 4
- 1.9488 2 1 ack 40 ------- 0 5.0 0.0 1 4
r 1.9488 4 3 ack 40 ------- 0 5.0 0.0 2 5
+ 1.9488 3 2 ack 40 ------- 0 5.0 0.0 2 5
- 1.9488 3 2 ack 40 ------- 0 5.0 0.0 2 5
r 1.9904 2 1 ack 40 ------- 0 5.0 0.0 1 4
+ 1.9904 1 0 ack 40 ------- 0 5.0 0.0 1 4
- 1.9904 1 0 ack 40 ------- 0 5.0 0.0 1 4
r 1.9904 3 2 ack 40 ------- 0 5.0 0.0 2 5
+ 1.9904 2 1 ack 40 ------- 0 5.0 0.0 2 5
- 1.9904 2 1 ack 40 ------- 0 5.0 0.0 2 5
r 2.032 1 0 ack 40 ------- 0 5.0 0.0 1 4
+ 2.032 0 1 tcp 1040 ------- 0 0.0 5.0 3 6
- 2.032 0 1 tcp 1040 ------- 0 0.0 5.0 3 6
+ 2.032 0 1 tcp 1040 ------- 0 0.0 5.0 4 7
r 2.032 2 1 ack 40 ------- 0 5.0 0.0 2 5
+ 2.032 1 0 ack 40 ------- 0 5.0 0.0 2 5
- 2.032 1 0 ack 40 ------- 0 5.0 0.0 2 5
- 2.0736 0 1 tcp 1040 ------- 0 0.0 5.0 4 7
r 2.0736 1 0 ack 40 ------- 0 5.0 0.0 2 5
+ 2.0736 0 1 tcp 1040 ------- 0 0.0 5.0 5 8
+ 2.0736 0 1 tcp 1040 ------- 0 0.0 5.0 6 9
r 2.1136 0 1 tcp 1040 ------- 0 0.0 5.0 3 6
+ 2.1136 1 2 tcp 1040 ------- 0 0.0 5.0 3 6
- 2.1136 1 2 tcp 1040 ------- 0 0.0 5.0 3 6
- 2.1152 0 1 tcp 1040 ------- 0 0.0 5.0 5 8
r 2.1552 0 1 tcp 1040 ------- 0 0.0 5.0 4 7
+ 2.1552 1 2 tcp 1040 ------- 0 0.0 5.0 4 7
- 2.1552 1 2 tcp 1040 ------- 0 0.0 5.0 4 7
- 2.1568 0 1 tcp 1040 ------- 0 0.0 5.0 6 9
r 2.1952 1 2 tcp 1040 ------- 0 0.0 5.0 3 6
+ 2.1952 2 3 tcp 1040 ------- 0 0.0 5.0 3 6
- 2.1952 2 3 tcp 1040 ------- 0 0.0 5.0 3 6
r 2.1968 0 1 tcp 1040 ------- 0 0.0 5.0 5 8
+ 2.1968 1 2 tcp 1040 ------- 0 0.0 5.0 5 8
- 2.1968 1 2 tcp 1040 ------- 0 0.0 5.0 5 8
r 2.2368 1 2 tcp 1040 ------- 0 0.0 5.0 4 7
+ 2.2368 2 3 tcp 1040 ------- 0 0.0 5.0 4 7
- 2.2368 2 3 tcp 1040 ------- 0 0.0 5.0 4 7
r 2.2384 0 1 tcp 1040 ------- 0 0.0 5.0 6 9
+ 2.2384 1 2 tcp 1040 ------- 0 0.0 5.0 6 9
- 2.2384 1 2 tcp 1040 ------- 0 0.0 5.0 6 9
r 2.2768 2 3 tcp 1040 ------- 0 0.0 5.0 3 6
+ 2.2768 3 4 tcp 1040 ------- 0 0.0 5.0 3 6
- 2.2768 3 4 tcp 1040 ------- 0 0.0 5.0 3 6
r 2.2784 1 2 tcp 1040 ------- 0 0.0 5.0 5 8
+ 2.2784 2 3 tcp 1040 ------- 0 0.0 5.0 5 8
- 2.2784 2 3 tcp 1040 ------- 0 0.0 5.0 5 8
r 2.3184 2 3 tcp 1040 ------- 0 0.0 5.0 4 7
+ 2.3184 3 4 tcp 1040 ------- 0 0.0 5.0 4 7
- 2.3184 3 4 tcp 1040 ------- 0 0.0 5.0 4 7
r 2.32 1 2 tcp 1040 ------- 0 0.0 5.0 6 9
+ 2.32 2 3 tcp 1040 ------- 0 0.0 5.0 6 9
- 2.32 2 3 tcp 1040 ------- 0 0.0 5.0 6 9
r 2.3584 3 4 tcp 1040 ------- 0 0.0 5.0 3 6
+ 2.3584 4 5 tcp 1040 ------- 0 0.0 5.0 3 6
- 2.3584 4 5 tcp 1040 ------- 0 0.0 5.0 3 6
r 2.36 2 3 tcp 1040 ------- 0 0.0 5.0 5 8
+ 2.36 3 4 tcp 1040 ------- 0 0.0 5.0 5 8
- 2.36 3 4 tcp 1040 ------- 0 0.0 5.0 5 8
r 2.4 3 4 tcp 1040 ------- 0 0.0 5.0 4 7
+ 2.4 4 5 tcp 1040 ------- 0 0.0 5.0 4 7
- 2.4 4 5 tcp 1040 ------- 0 0.0 5.0 4 7
r 2.4016 2 3 tcp 1040 ------- 0 0.0 5.0 6 9
+ 2.4016 3 4 tcp 1040 ------- 0 0.0 5.0 6 9
- 2.4016 3 4 tcp 1040 ------- 0 0.0 5.0 6 9
r 2.44 4 5 tcp 1040 ------- 0 0.0 5.0 3 6
+ 2.44 5 4 ack 40 ------- 0 5.0 0.0 3 10
- 2.44 5 4 ack 40 ------- 0 5.0 0.0 3 10
r 2.4416 3 4 tcp 1040 ------- 0 0.0 5.0 5 8
+ 2.4416 4 5 tcp 1040 ------- 0 0.0 5.0 5 8
- 2.4416 4 5 tcp 1040 ------- 0 0.0 5.0 5 8
r 2.4816 4 5 tcp 1040 ------- 0 0.0 5.0 4 7
+ 2.4816 5 4 ack 40 ------- 0 5.0 0.0 4 11
- 2.4816 5 4 ack 40 ------- 0 5.0 0.0 4 11
r 2.4816 5 4 ack 40 ------- 0 5.0 0.0 3 10
+ 2.4816 4 3 ack 40 ------- 0 5.0 0.0 3 10
- 2.4816 4 3 ack 40 ------- 0 5.0 0.0 3 10
r 2.4832 3 4 tcp 1040 ------- 0 0.0 5.0 6 9
+ 2.4832 4 5 tcp 1040 ------- 0 0.0 5.0 6 9
- 2.4832 4 5 tcp 1040 ------- 0 0.0 5.0 6 9
r 2.5232 4 5 tcp 1040 ------- 0 0.0 5.0 5 8
+ 2.5232 5 4 ack 40 ------- 0 5.0 0.0 5 12
- 2.5232 5 4 ack 40 ------- 0 5.0 0.0 5 12
r 2.5232 5 4 ack 40 ------- 0 5.0 0.0 4 11
+ 2.5232 4 3 ack 40 ------- 0 5.0 0.0 4 11
- 2.5232 4 3 ack 40 ------- 0 5.0 0.0 4 11
r 2.5232 4 3 ack 40 ------- 0 5.0 0.0 3 10
+ 2.5232 3 2 ack 40 ------- 0 5.0 0.0 3 10
- 2.5232 3 2 ack 40 ------- 0 5.0 0.0 3 10
r 2.5648 4 5 tcp 1040 ------- 0 0.0 5.0 6 9
+ 2.5648 5 4 ack 40 ------- 0 5.0 0.0 6 13
- 2.5648 5 4 ack 40 ------- 0 5.0 0.0 6 13
r 2.5648 5 4 ack 40 ------- 0 5.0 0.0 5 12
+ 2.5648 4 3 ack 40 ------- 0 5.0 0.0 5 12
- 2.5648 4 3 ack 40 ------- 0 5.0 0.0 5 12
r 2.5648 4 3 ack 40 ------- 0 5.0 0.0 4 11
+ 2.5648 3 2 ack 40 ------- 0 5.0 0.0 4 11
- 2.5648 3 2 ack 40 ------- 0 5.0 0.0 4 11
r 2.5648 3 2 ack 40 ------- 0 5.0 0.0 3 10
+ 2.5648 2 1 ack 40 ------- 0 5.0 0.0 3 10
- 2.5648 2 1 ack 40 ------- 0 5.0 0.0 3 10
r 2.6064 5 4 ack 40 ------- 0 5.0 0.0 6 13
+ 2.6064 4 3 ack 40 ------- 0 5.0 0.0 6 13
- 2.6064 4 3 ack 40 ------- 0 5.0 0.0 6 13
r 2.6064 4 3 ack 40 ------- 0 5.0 0.0 5 12
+ 2.6064 3 2 ack 40 ------- 0 5.0 0.0 5 12
- 2.6064 3 2 ack 40 ------- 0 5.0 0.0 5 12
r 2.6064 3 2 ack 40 ------- 0 5.0 0.0 4 11
+ 2.6064 2 1 ack 40 ------- 0 5.0 0.0 4 11
- 2.6064 2 1 ack 40 ------- 0 5.0 0.0 4 11
r 2.6064 2 1 ack 40 ------- 0 5.0 0.0 3 10
+ 2.6064 1 0 ack 40 ------- 0 5.0 0.0 3 10
- 2.6064 1 0 ack 40 ------- 0 5.0 0.0 3 10
r 2.648 4 3 ack 40 ------- 0 5.0 0.0 6 13
+ 2.648 3 2 ack 40 ------- 0 5.0 0.0 6 13
- 2.648 3 2 ack 40 ------- 0 5.0 0.0 6 13
r 2.648 3 2 ack 40 ------- 0 5.0 0.0 5 12
+ 2.648 2 1 ack 40 ------- 0 5.0 0.0 5 12
- 2.648 2 1 ack 40 ------- 0 5.0 0.0 5 12
r 2.648 2 1 ack 40 ------- 0 5.0 0.0 4 11
+ 2.648 1 0 ack 40 ------- 0 5.0 0.0 4 11
- 2.648 1 0 ack 40 ------- 0 5.0 0.0 4 11
r 2.648 1 0 ack 40 ------- 0 5.0 0.0 3 10
+ 2.648 0 1 tcp 1040 ------- 0 0.0 5.0 7 14
- 2.648 0 1 tcp 1040 ------- 0 0.0 5.0 7 14
+ 2.648 0 1 tcp 1040 ------- 0 0.0 5.0 8 15
r 2.6896 3 2 ack 40 ------- 0 5.0 0.0 6 13
+ 2.6896 2 1 ack 40 ------- 0 5.0 0.0 6 13
- 2.6896 2 1 ack 40 ------- 0 5.0 0.0 6 13
r 2.6896 2 1 ack 40 ------- 0 5.0 0.0 5 12
+ 2.6896 1 0 ack 40 ------- 0 5.0 0.0 5 12
- 2.6896 1 0 ack 40 ------- 0 5.0 0.0 5 12
r 2.6896 1 0 ack 40 ------- 0 5.0 0.0 4 11
+ 2.6896 0 1 tcp 1040 ------- 0 0.0 5.0 9 16
+ 2.6896 0 1 tcp 1040 ------- 0 0.0 5.0 10 17
- 2.6896 0 1 tcp 1040 ------- 0 0.0 5.0 8 15
r 2.7296 0 1 tcp 1040 ------- 0 0.0 5.0 7 14
+ 2.7296 1 2 tcp 1040 ------- 0 0.0 5.0 7 14
- 2.7296 1 2 tcp 1040 ------- 0 0.0 5.0 7 14
r 2.7312 2 1 ack 40 ------- 0 5.0 0.0 6 13
+ 2.7312 1 0 ack 40 ------- 0 5.0 0.0 6 13
- 2.7312 1 0 ack 40 ------- 0 5.0 0.0 6 13
r 2.7312 1 0 ack 40 ------- 0 5.0 0.0 5 12
+ 2.7312 0 1 tcp 1040 ------- 0 0.0 5.0 11 18
+ 2.7312 0 1 tcp 1040 ------- 0 0.0 5.0 12 19
- 2.7312 0 1 tcp 1040 ------- 0 0.0 5.0 9 16
r 2.7712 0 1 tcp 1040 ------- 0 0.0 5.0 8 15
+ 2.7712 1 2 tcp 1040 ------- 0 0.0 5.0 8 15
- 2.7712 1 2 tcp 1040 ------- 0 0.0 5.0 8 15
r 2.7728 1 0 ack 40 ------- 0 5.0 0.0 6 13
+ 2.7728 0 1 tcp 1040 ------- 0 0.0 5.0 13 20
+ 2.7728 0 1 tcp 1040 ------- 0 0.0 5.0 14 21
- 2.7728 0 1 tcp 1040 ------- 0 0.0 5.0 10 17
r 2.8112 1 2 tcp 1040 ------- 0 0.0 5.0 7 14
+ 2.8112 2 3 tcp 1040 ------- 0 0.0 5.0 7 14
- 2.8112 2 3 tcp 1040 ------- 0 0.0 5.0 7 14
r 2.8128 0 1 tcp 1040 ------- 0 0.0 5.0 9 16
+ 2.8128 1 2 tcp 1040 ------- 0 0.0 5.0 9 16
- 2.8128 1 2 tcp 1040 ------- 0 0.0 5.0 9 16
- 2.8144 0 1 tcp 1040 ------- 0 0.0 5.0 11 18
r 2.8528 1 2 tcp 1040 ------- 0 0.0 5.0 8 15
+ 2.8528 2 3 tcp 1040 ------- 0 0.0 5.0 8 15
- 2.8528 2 3 tcp 1040 ------- 0 0.0 5.0 8 15
r 2.8544 0 1 tcp 1040 ------- 0 0.0 5.0 10 17
+ 2.8544 1 2 tcp 1040 ------- 0 0.0 5.0 10 17
- 2.8544 1 2 tcp 1040 ------- 0 0.0 5.0 10 17
- 2.856 0 1 tcp 1040 ------- 0 0.0 5.0 12 19
r 2.8928 2 3 tcp 1040 ------- 0 0.0 5.0 7 14
+ 2.8928 3 4 tcp 1040 ------- 0 0.0 5.0 7 14
- 2.8928 3 4 tcp 1040 ------- 0 0.0 5.0 7 14
r 2.8944 1 2 tcp 1040 ------- 0 0.0 5.0 9 16
+ 2.8944 2 3 tcp 1040 ------- 0 0.0 5.0 9 16
- 2.8944 2 3 tcp 1040 ------- 0 0.0 5.0 9 16
r 2.896 0 1 tcp 1040 ------- 0 0.0 5.0 11 18
+ 2.896 1 2 tcp 1040 ------- 0 0.0 5.0 11 18
- 2.896 1 2 tcp 1040 ------- 0 0.0 5.0 11 18
- 2.8976 0 1 tcp 1040 ------- 0 0.0 5.0 13 20
r 2.9344 2 3 tcp 1040 ------- 0 0.0 5.0 8 15
+ 2.9344 3 4 tcp 1040 ------- 0 0.0 5.0 8 15
- 2.9344 3 4 tcp 1040 ------- 0 0.0 5.0 8 15
r 2.936 1 2 tcp 1040 ------- 0 0.0 5.0 10 17
+ 2.936 2 3 tcp 1040 ------- 0 0.0 5.0 10 17
- 2.936 2 3 tcp 1040 ------- 0 0.0 5.0 10 17
r 2.9376 0 1 tcp 1040 ------- 0 0.0 5.0 12 19
+ 2.9376 1 2 tcp 1040 ------- 0 0.0 5.0 12 19
- 2.9376 1 2 tcp 1040 ------- 0 0.0 5.0 12 19
- 2.9392 0 1 tcp 1040 ------- 0 0.0 5.0 14 21
r 2.9744 3 4 tcp 1040 ------- 0 0.0 5.0 7 14
+ 2.9744 4 5 tcp 1040 ------- 0 0.0 5.0 7 14
- 2.9744 4 5 tcp 1040 ------- 0 0.0 5.0 7 14
r 2.976 2 3 tcp 1040 ------- 0 0.0 5.0 9 16
+ 2.976 3 4 tcp 1040 ------- 0 0.0 5.0 9 16
- 2.976 3 4 tcp 1040 ------- 0 0.0 5.0 9 16
r 2.9776 1 2 tcp 1040 ------- 0 0.0 5.0 11 18
+ 2.9776 2 3 tcp 1040 ------- 0 0.0 5.0 11 18
- 2.9776 2 3 tcp 1040 ------- 0 0.0 5.0 11 18
r 2.9792 0 1 tcp 1040 ------- 0 0.0 5.0 13 20
+ 2.9792 1 2 tcp 1040 ------- 0 0.0 5.0 13 20
- 2.9792 1 2 tcp 1040 ------- 0 0.0 5.0 13 20
r 3.016 3 4 tcp 1040 ------- 0 0.0 5.0 8 15
+ 3.016 4 5 tcp 1040 ------- 0 0.0 5.0 8 15
- 3.016 4 5 tcp 1040 ------- 0 0.0 5.0 8 15
r 3.0176 2 3 tcp 1040 ------- 0 0.0 5.0 10 17
+ 3.0176 3 4 tcp 1040 ------- 0 0.0 5.0 10 17
- 3.0176 3 4 tcp 1040 ------- 0 0.0 5.0 10 17
r 3.0192 1 2 tcp 1040 ------- 0 0.0 5.0 12 19
+ 3.0192 2 3 tcp 1040 ------- 0 0.0 5.0 12 19
- 3.0192 2 3 tcp 1040 ------- 0 0.0 5.0 12 19
r 3.0208 0 1 tcp 1040 ------- 0 0.0 5.0 14 21
+ 3.0208 1 2 tcp 1040 ------- 0 0.0 5.0 14 21
- 3.0208 1 2 tcp 1040 ------- 0 0.0 5.0 14 21
r 3.056 4 5 tcp 1040 ------- 0 0.0 5.0 7 14
+ 3.056 5 4 ack 40 ------- 0 5.0 0.0 7 22
- 3.056 5 4 ack 40 ------- 0 5.0 0.0 7 22
r 3.0576 3 4 tcp 1040 ------- 0 0.0 5.0 9 16
+ 3.0576 4 5 tcp 1040 ------- 0 0.0 5.0 9 16
- 3.0576 4 5 tcp 1040 ------- 0 0.0 5.0 9 16
r 3.0592 2 3 tcp 1040 ------- 0 0.0 5.0 11 18
+ 3.0592 3 4 tcp 1040 ------- 0 0.0 5.0 11 18
- 3.0592 3 4 tcp 1040 ------- 0 0.0 5.0 11 18
r 3.0608 1 2 tcp 1040 ------- 0 0.0 5.0 13 20
+ 3.0608 2 3 tcp 1040 ------- 0 0.0 5.0 13 20
- 3.0608 2 3 tcp 1040 ------- 0 0.0 5.0 13 20
r 3.0976 4 5 tcp 1040 ------- 0 0.0 5.0 8 15
+ 3.0976 5 4 ack 40 ------- 0 5.0 0.0 8 23
- 3.0976 5 4 ack 40 ------- 0 5.0 0.0 8 23
r 3.0976 5 4 ack 40 ------- 0 5.0 0.0 7 22
+ 3.0976 4 3 ack 40 ------- 0 5.0 0.0 7 22
- 3.0976 4 3 ack 40 ------- 0 5.0 0.0 7 22
r 3.0992 3 4 tcp 1040 ------- 0 0.0 5.0 10 17
+ 3.0992 4 5 tcp 1040 ------- 0 0.0 5.0 10 17
- 3.0992 4 5 tcp 1040 ------- 0 0.0 5.0 10 17
r 3.1008 2 3 tcp 1040 ------- 0 0.0 5.0 12 19
+ 3.1008 3 4 tcp 1040 ------- 0 0.0 5.0 12 19
- 3.1008 3 4 tcp 1040 ------- 0 0.0 5.0 12 19
r 3.1024 1 2 tcp 1040 ------- 0 0.0 5.0 14 21
+ 3.1024 2 3 tcp 1040 ------- 0 0.0 5.0 14 21
- 3.1024 2 3 tcp 1040 ------- 0 0.0 5.0 14 21
r 3.1392 4 5 tcp 1040 ------- 0 0.0 5.0 9 16
+ 3.1392 5 4 ack 40 ------- 0 5.0 0.0 9 24
- 3.1392 5 4 ack 40 ------- 0 5.0 0.0 9 24
r 3.1392 5 4 ack 40 ------- 0 5.0 0.0 8 23
+ 3.1392 4 3 ack 40 ------- 0 5.0 0.0 8 23
- 3.1392 4 3 ack 40 ------- 0 5.0 0.0 8 23
r 3.1392 4 3 ack 40 ------- 0 5.0 0.0 7 22
+ 3.1392 3 2 ack 40 ------- 0 5.0 0.0 7 22
- 3.1392 3 2 ack 40 ------- 0 5.0 0.0 7 22
r 3.1408 3 4 tcp 1040 ------- 0 0.0 5.0 11 18
+ 3.1408 4 5 tcp 1040 ------- 0 0.0 5.0 11 18
- 3.1408 4 5 tcp 1040 ------- 0 0.0 5.0 11 18
r 3.1424 2 3 tcp 1040 ------- 0 0.0 5.0 13 20
+ 3.1424 3 4 tcp 1040 ------- 0 0.0 5.0 13 20
- 3.1424 3 4 tcp 1040 ------- 0 0.0 5.0 13 20
r 3.1808 4 5 tcp 1040 ------- 0 0.0 5.0 10 17
+ 3.1808 5 4 ack 40 ------- 0 5.0 0.0 10 25
- 3.1808 5 4 ack 40 ------- 0 5.0 0.0 10 25
r 3.1808 5 4 ack 40 ------- 0 5.0 0.0 9 24
+ 3.1808 4 3 ack 40 ------- 0 5.0 0.0 9 24
- 3.1808 4 3 ack 40 ------- 0 5.0 0.0 9 24
r 3.1808 4 3 ack 40 ------- 0 5.0 0.0 8 23
+ 3.1808 3 2 ack 40 ------- 0 5.0 0.0 8 23
- 3.1808 3 2 ack 40 ------- 0 5.0 0.0 8 23
r 3.1808 3 2 ack 40 ------- 0 5.0 0.0 7 22
+ 3.1808 2 1 ack 40 ------- 0 5.0 0.0 7 22
- 3.1808 2 1 ack 40 ------- 0 5.0 0.0 7 22
r 3.1824 3 4 tcp 1040 ------- 0 0.0 5.0 12 19
+ 3.1824 4 5 tcp 1040 ------- 0 0.0 5.0 12 19
- 3.1824 4 5 tcp 1040 ------- 0 0.0 5.0 12 19
r 3.184 2 3 tcp 1040 ------- 0 0.0 5.0 14 21
+ 3.184 3 4 tcp 1040 ------- 0 0.0 5.0 14 21
- 3.184 3 4 tcp 1040 ------- 0 0.0 5.0 14 21
r 3.2224 4 5 tcp 1040 ------- 0 0.0 5.0 11 18
+ 3.2224 5 4 ack 40 ------- 0 5.0 0.0 11 26
- 3.2224 5 4 ack 40 ------- 0 5.0 0.0 11 26
r 3.2224 5 4 ack 40 ------- 0 5.0 0.0 10 25
+ 3.2224 4 3 ack 40 ------- 0 5.0 0.0 10 25
- 3.2224 4 3 ack 40 ------- 0 5.0 0.0 10 25
r 3.2224 4 3 ack 40 ------- 0 5.0 0.0 9 24
+ 3.2224 3 2 ack 40 ------- 0 5.0 0.0 9 24
- 3.2224 3 2 ack 40 ------- 0 5.0 0.0 9 24
r 3.2224 3 2 ack 40 ------- 0 5.0 0.0 8 23
+ 3.2224 2 1 ack 40 ------- 0 5.0 0.0 8 23
- 3.2224 2 1 ack 40 ------- 0 5.0 0.0 8 23
r 3.2224 2 1 ack 40 ------- 0 5.0 0.0 7 22
+ 3.2224 1 0 ack 40 ------- 0 5.0 0.0 7 22
- 3.2224 1 0 ack 40 ------- 0 5.0 0.0 7 22
r 3.224 3 4 tcp 1040 ------- 0 0.0 5.0 13 20
+ 3.224 4 5 tcp 1040 ------- 0 0.0 5.0 13 20
- 3.224 4 5 tcp 1040 ------- 0 0.0 5.0 13 20
r 3.264 4 5 tcp 1040 ------- 0 0.0 5.0 12 19
+ 3.264 5 4 ack 40 ------- 0 5.0 0.0 12 27
- 3.264 5 4 ack 40 ------- 0 5.0 0.0 12 27
r 3.264 5 4 ack 40 ------- 0 5.0 0.0 11 26
+ 3.264 4 3 ack 40 ------- 0 5.0 0.0 11 26
- 3.264 4 3 ack 40 ------- 0 5.0 0.0 11 26
r 3.264 4 3 ack 40 ------- 0 5.0 0.0 10 25
+ 3.264 3 2 ack 40 ------- 0 5.0 0.0 10 25
- 3.264 3 2 ack 40 ------- 0 5.0 0.0 10 25
r 3.264 3 2 ack 40 ------- 0 5.0 0.0 9 24
+ 3.264 2 1 ack 40 ------- 0 5.0 0.0 9 24
- 3.264 2 1 ack 40 ------- 0 5.0 0.0 9 24
r 3.264 2 1 ack 40 ------- 0 5.0 0.0 8 23
+ 3.264 1 0 ack 40 ------- 0 5.0 0.0 8 23
- 3.264 1 0 ack 40 ------- 0 5.0 0.0 8 23
r 3.264 1 0 ack 40 ------- 0 5.0 0.0 7 22
+ 3.264 0 1 tcp 1040 ------- 0 0.0 5.0 15 28
- 3.264 0 1 tcp 1040 ------- 0 0.0 5.0 15 28
+ 3.264 0 1 tcp 1040 ------- 0 0.0 5.0 16 29
r 3.2656 3 4 tcp 1040 ------- 0 0.0 5.0 14 21
+ 3.2656 4 5 tcp 1040 ------- 0 0.0 5.0 14 21
- 3.2656 4 5 tcp 1040 ------- 0 0.0 5.0 14 21
r 3.3056 4 5 tcp 1040 ------- 0 0.0 5.0 13 20
+ 3.3056 5 4 ack 40 ------- 0 5.0 0.0 13 30
- 3.3056 5 4 ack 40 ------- 0 5.0 0.0 13 30
r 3.3056 5 4 ack 40 ------- 0 5.0 0.0 12 27
+ 3.3056 4 3 ack 40 ------- 0 5.0 0.0 12 27
- 3.3056 4 3 ack 40 ------- 0 5.0 0.0 12 27
r 3.3056 4 3 ack 40 ------- 0 5.0 0.0 11 26
+ 3.3056 3 2 ack 40 ------- 0 5.0 0.0 11 26
- 3.3056 3 2 ack 40 ------- 0 5.0 0.0 11 26
r 3.3056 3 2 ack 40 ------- 0 5.0 0.0 10 25
+ 3.3056 2 1 ack 40 ------- 0 5.0 0.0 10 25
- 3.3056 2 1 ack 40 ------- 0 5.0 0.0 10 25
r 3.3056 2 1 ack 40 ------- 0 5.0 0.0 9 24
+ 3.3056 1 0 ack 40 ------- 0 5.0 0.0 9 24
- 3.3056 1 0 ack 40 ------- 0 5.0 0.0 9 24
r 3.3056 1 0 ack 40 ------- 0 5.0 0.0 8 23
+ 3.3056 0 1 tcp 1040 ------- 0 0.0 5.0 17 31
+ 3.3056 0 1 tcp 1040 ------- 0 0.0 5.0 18 32
- 3.3056 0 1 tcp 1040 ------- 0 0.0 5.0 16 29
r 3.3456 0 1 tcp 1040 ------- 0 0.0 5.0 15 28
+ 3.3456 1 2 tcp 1040 ------- 0 0.0 5.0 15 28
- 3.3456 1 2 tcp 1040 ------- 0 0.0 5.0 15 28
r 3.3472 4 5 tcp 1040 ------- 0 0.0 5.0 14 21
+ 3.3472 5 4 ack 40 ------- 0 5.0 0.0 14 33
- 3.3472 5 4 ack 40 ------- 0 5.0 0.0 14 33
r 3.3472 5 4 ack 40 ------- 0 5.0 0.0 13 30
+ 3.3472 4 3 ack 40 ------- 0 5.0 0.0 13 30
- 3.3472 4 3 ack 40 ------- 0 5.0 0.0 13 30
r 3.3472 4 3 ack 40 ------- 0 5.0 0.0 12 27
+ 3.3472 3 2 ack 40 ------- 0 5.0 0.0 12 27
- 3.3472 3 2 ack 40 ------- 0 5.0 0.0 12 27
r 3.3472 3 2 ack 40 ------- 0 5.0 0.0 11 26
+ 3.3472 2 1 ack 40 ------- 0 5.0 0.0 11 26
- 3.3472 2 1 ack 40 ------- 0 5.0 0.0 11 26
r 3.3472 2 1 ack 40 ------- 0 5.0 0.0 10 25
+ 3.3472 1 0 ack 40 ------- 0 5.0 0.0 10 25
- 3.3472 1 0 ack 40 ------- 0 5.0 0.0 10 25
r 3.3472 1 0 ack 40 ------- 0 5.0 0.0 9 24
+ 3.3472 0 1 tcp 1040 ------- 0 0.0 5.0 19 34
+ 3.3472 0 1 tcp 1040 ------- 0 0.0 5.0 20 35
- 3.3472 0 1 tcp 1040 ------- 0 0.0 5.0 17 31
r 3.3872 0 1 tcp 1040 ------- 0 0.0 5.0 16 29
+ 3.3872 1 2 tcp 1040 ------- 0 0.0 5.0 16 29
- 3.3872 1 2 tcp 1040 ------- 0 0.0 5.0 16 29
r 3.3888 5 4 ack 40 ------- 0 5.0 0.0 14 33
+ 3.3888 4 3 ack 40 ------- 0 5.0 0.0 14 33
- 3.3888 4 3 ack 40 ------- 0 5.0 0.0 14 33
r 3.3888 4 3 ack 40 ------- 0 5.0 0.0 13 30
+ 3.3888 3 2 ack 40 ------- 0 5.0 0.0 13 30
- 3.3888 3 2 ack 40 ------- 0 5.0 0.0 13 30
r 3.3888 3 2 ack 40 ------- 0 5.0 0.0 12 27
+ 3.3888 2 1 ack 40 ------- 0 5.0 0.0 12 27
- 3.3888 2 1 ack 40 ------- 0 5.0 0.0 12 27
r 3.3888 2 1 ack 40 ------- 0 5.0 0.0 11 26
+ 3.3888 1 0 ack 40 ------- 0 5.0 0.0 11 26
- 3.3888 1 0 ack 40 ------- 0 5.0 0.0 11 26
r 3.3888 1 0 ack 40 ------- 0 5.0 0.0 10 25
+ 3.3888 0 1 tcp 1040 ------- 0 0.0 5.0 21 36
+ 3.3888 0 1 tcp 1040 ------- 0 0.0 5.0 22 37
- 3.3888 0 1 tcp 1040 ------- 0 0.0 5.0 18 32
r 3.4272 1 2 tcp 1040 ------- 0 0.0 5.0 15 28
+ 3.4272 2 3 tcp 1040 ------- 0 0.0 5.0 15 28
- 3.4272 2 3 tcp 1040 ------- 0 0.0 5.0 15 28
r 3.4288 0 1 tcp 1040 ------- 0 0.0 5.0 17 31
+ 3.4288 1 2 tcp 1040 ------- 0 0.0 5.0 17 31
- 3.4288 1 2 tcp 1040 ------- 0 0.0 5.0 17 31
r 3.4304 4 3 ack 40 ------- 0 5.0 0.0 14 33
+ 3.4304 3 2 ack 40 ------- 0 5.0 0.0 14 33
- 3.4304 3 2 ack 40 ------- 0 5.0 0.0 14 33
r 3.4304 3 2 ack 40 ------- 0 5.0 0.0 13 30
+ 3.4304 2 1 ack 40 ------- 0 5.0 0.0 13 30
- 3.4304 2 1 ack 40 ------- 0 5.0 0.0 13 30
r 3.4304 2 1 ack 40 ------- 0 5.0 0.0 12 27
+ 3.4304 1 0 ack 40 ------- 0 5.0 0.0 12 27
- 3.4304 1 0 ack 40 ------- 0 5.0 0.0 12 27
r 3.4304 1 0 ack 40 ------- 0 5.0 0.0 11 26
+ 3.4304 0 1 tcp 1040 ------- 0 0.0 5.0 23 38
+ 3.4304 0 1 tcp 1040 ------- 0 0.0 5.0 24 39
- 3.4304 0 1 tcp 1040 ------- 0 0.0 5.0 19 34
r 3.4688 1 2 tcp 1040 ------- 0 0.0 5.0 16 29
+ 3.4688 2 3 tcp 1040 ------- 0 0.0 5.0 16 29
- 3.4688 2 3 tcp 1040 ------- 0 0.0 5.0 16 29
r 3.4704 0 1 tcp 1040 ------- 0 0.0 5.0 18 32
+ 3.4704 1 2 tcp 1040 ------- 0 0.0 5.0 18 32
- 3.4704 1 2 tcp 1040 ------- 0 0.0 5.0 18 32
r 3.472 3 2 ack 40 ------- 0 5.0 0.0 14 33
+ 3.472 2 1 ack 40 ------- 0 5.0 0.0 14 33
- 3.472 2 1 ack 40 ------- 0 5.0 0.0 14 33
r 3.472 2 1 ack 40 ------- 0 5.0 0.0 13 30
+ 3.472 1 0 ack 40 ------- 0 5.0 0.0 13 30
- 3.472 1 0 ack 40 ------- 0 5.0 0.0 13 30
r 3.472 1 0 ack 40 ------- 0 5.0 0.0 12 27
+ 3.472 0 1 tcp 1040 ------- 0 0.0 5.0 25 40
+ 3.472 0 1 tcp 1040 ------- 0 0.0 5.0 26 41
- 3.472 0 1 tcp 1040 ------- 0 0.0 5.0 20 35
r 3.5088 2 3 tcp 1040 ------- 0 0.0 5.0 15 28
+ 3.5088 3 4 tcp 1040 ------- 0 0.0 5.0 15 28
- 3.5088 3 4 tcp 1040 ------- 0 0.0 5.0 15 28
r 3.5104 1 2 tcp 1040 ------- 0 0.0 5.0 17 31
+ 3.5104 2 3 tcp 1040 ------- 0 0.0 5.0 17 31
- 3.5104 2 3 tcp 1040 ------- 0 0.0 5.0 17 31
r 3.512 0 1 tcp 1040 ------- 0 0.0 5.0 19 34
+ 3.512 1 2 tcp 1040 ------- 0 0.0 5.0 19 34
- 3.512 1 2 tcp 1040 ------- 0 0.0 5.0 19 34
r 3.5136 2 1 ack 40 ------- 0 5.0 0.0 14 33
+ 3.5136 1 0 ack 40 ------- 0 5.0 0.0 14 33
- 3.5136 1 0 ack 40 ------- 0 5.0 0.0 14 33
r 3.5136 1 0 ack 40 ------- 0 5.0 0.0 13 30
+ 3.5136 0 1 tcp 1040 ------- 0 0.0 5.0 27 42
+ 3.5136 0 1 tcp 1040 ------- 0 0.0 5.0 28 43
- 3.5136 0 1 tcp 1040 ------- 0 0.0 5.0 21 36
r 3.5504 2 3 tcp 1040 ------- 0 0.0 5.0 16 29
+ 3.5504 3 4 tcp 1040 ------- 0 0.0 5.0 16 29
- 3.5504 3 4 tcp 1040 ------- 0 0.0 5.0 16 29
r 3.552 1 2 tcp 1040 ------- 0 0.0 5.0 18 32
+ 3.552 2 3 tcp 1040 ------- 0 0.0 5.0 18 32
- 3.552 2 3 tcp 1040 ------- 0 0.0 5.0 18 32
r 3.5536 0 1 tcp 1040 ------- 0 0.0 5.0 20 35
+ 3.5536 1 2 tcp 1040 ------- 0 0.0 5.0 20 35
- 3.5536 1 2 tcp 1040 ------- 0 0.0 5.0 20 35
r 3.5552 1 0 ack 40 ------- 0 5.0 0.0 14 33
+ 3.5552 0 1 tcp 1040 ------- 0 0.0 5.0 29 44
+ 3.5552 0 1 tcp 1040 ------- 0 0.0 5.0 30 45
- 3.5552 0 1 tcp 1040 ------- 0 0.0 5.0 22 37
r 3.5904 3 4 tcp 1040 ------- 0 0.0 5.0 15 28
+ 3.5904 4 5 tcp 1040 ------- 0 0.0 5.0 15 28
- 3.5904 4 5 tcp 1040 ------- 0 0.0 5.0 15 28
r 3.592 2 3 tcp 1040 ------- 0 0.0 5.0 17 31
+ 3.592 3 4 tcp 1040 ------- 0 0.0 5.0 17 31
- 3.592 3 4 tcp 1040 ------- 0 0.0 5.0 17 31
r 3.5936 1 2 tcp 1040 ------- 0 0.0 5.0 19 34
+ 3.5936 2 3 tcp 1040 ------- 0 0.0 5.0 19 34
- 3.5936 2 3 tcp 1040 ------- 0 0.0 5.0 19 34
r 3.5952 0 1 tcp 1040 ------- 0 0.0 5.0 21 36
+ 3.5952 1 2 tcp 1040 ------- 0 0.0 5.0 21 36
- 3.5952 1 2 tcp 1040 ------- 0 0.0 5.0 21 36
- 3.5968 0 1 tcp 1040 ------- 0 0.0 5.0 23 38
r 3.632 3 4 tcp 1040 ------- 0 0.0 5.0 16 29
+ 3.632 4 5 tcp 1040 ------- 0 0.0 5.0 16 29
- 3.632 4 5 tcp 1040 ------- 0 0.0 5.0 16 29
r 3.6336 2 3 tcp 1040 ------- 0 0.0 5.0 18 32
+ 3.6336 3 4 tcp 1040 ------- 0 0.0 5.0 18 32
- 3.6336 3 4 tcp 1040 ------- 0 0.0 5.0 18 32
r 3.6352 1 2 tcp 1040 ------- 0 0.0 5.0 20 35
+ 3.6352 2 3 tcp 1040 ------- 0 0.0 5.0 20 35
- 3.6352 2 3 tcp 1040 ------- 0 0.0 5.0 20 35
r 3.6368 0 1 tcp 1040 ------- 0 0.0 5.0 22 37
+ 3.6368 1 2 tcp 1040 ------- 0 0.0 5.0 22 37
- 3.6368 1 2 tcp 1040 ------- 0 0.0 5.0 22 37
- 3.6384 0 1 tcp 1040 ------- 0 0.0 5.0 24 39
r 3.672 4 5 tcp 1040 ------- 0 0.0 5.0 15 28
+ 3.672 5 4 ack 40 ------- 0 5.0 0.0 15 46
- 3.672 5 4 ack 40 ------- 0 5.0 0.0 15 46
r 3.6736 3 4 tcp 1040 ------- 0 0.0 5.0 17 31
+ 3.6736 4 5 tcp 1040 ------- 0 0.0 5.0 17 31
- 3.6736 4 5 tcp 1040 ------- 0 0.0 5.0 17 31
r 3.6752 2 3 tcp 1040 ------- 0 0.0 5.0 19 34
+ 3.6752 3 4 tcp 1040 ------- 0 0.0 5.0 19 34
- 3.6752 3 4 tcp 1040 ------- 0 0.0 5.0 19 34
r 3.6768 1 2 tcp 1040 ------- 0 0.0 5.0 21 36
+ 3.6768 2 3 tcp 1040 ------- 0 0.0 5.0 21 36
- 3.6768 2 3 tcp 1040 ------- 0 0.0 5.0 21 36
r 3.6784 0 1 tcp 1040 ------- 0 0.0 5.0 23 38
+ 3.6784 1 2 tcp 1040 ------- 0 0.0 5.0 23 38
- 3.6784 1 2 tcp 1040 ------- 0 0.0 5.0 23 38
- 3.68 0 1 tcp 1040 ------- 0 0.0 5.0 25 40
r 3.7136 4 5 tcp 1040 ------- 0 0.0 5.0 16 29
+ 3.7136 5 4 ack 40 ------- 0 5.0 0.0 16 47
- 3.7136 5 4 ack 40 ------- 0 5.0 0.0 16 47
r 3.7136 5 4 ack 40 ------- 0 5.0 0.0 15 46
+ 3.7136 4 3 ack 40 ------- 0 5.0 0.0 15 46
- 3.7136 4 3 ack 40 ------- 0 5.0 0.0 15 46
r 3.7152 3 4 tcp 1040 ------- 0 0.0 5.0 18 32
+ 3.7152 4 5 tcp 1040 ------- 0 0.0 5.0 18 32
- 3.7152 4 5 tcp 1040 ------- 0 0.0 5.0 18 32
r 3.7168 2 3 tcp 1040 ------- 0 0.0 5.0 20 35
+ 3.7168 3 4 tcp 1040 ------- 0 0.0 5.0 20 35
- 3.7168 3 4 tcp 1040 ------- 0 0.0 5.0 20 35
r 3.7184 1 2 tcp 1040 ------- 0 0.0 5.0 22 37
+ 3.7184 2 3 tcp 1040 ------- 0 0.0 5.0 22 37
- 3.7184 2 3 tcp 1040 ------- 0 0.0 5.0 22 37
r 3.72 0 1 tcp 1040 ------- 0 0.0 5.0 24 39
+ 3.72 1 2 tcp 1040 ------- 0 0.0 5.0 24 39
- 3.72 1 2 tcp 1040 ------- 0 0.0 5.0 24 39
- 3.7216 0 1 tcp 1040 ------- 0 0.0 5.0 26 41
r 3.7552 4 5 tcp 1040 ------- 0 0.0 5.0 17 31
+ 3.7552 5 4 ack 40 ------- 0 5.0 0.0 17 48
- 3.7552 5 4 ack 40 ------- 0 5.0 0.0 17 48
r 3.7552 5 4 ack 40 ------- 0 5.0 0.0 16 47
+ 3.7552 4 3 ack 40 ------- 0 5.0 0.0 16 47
- 3.7552 4 3 ack 40 ------- 0 5.0 0.0 16 47
r 3.7552 4 3 ack 40 ------- 0 5.0 0.0 15 46
+ 3.7552 3 2 ack 40 ------- 0 5.0 0.0 15 46
- 3.7552 3 2 ack 40 ------- 0 5.0 0.0 15 46
r 3.7568 3 4 tcp 1040 ------- 0 0.0 5.0 19 34
+ 3.7568 4 5 tcp 1040 ------- 0 0.0 5.0 19 34
- 3.7568 4 5 tcp 1040 ------- 0 0.0 5.0 19 34
r 3.7584 2 3 tcp 1040 ------- 0 0.0 5.0 21 36
+ 3.7584 3 4 tcp 1040 ------- 0 0.0 5.0 21 36
- 3.7584 3 4 tcp 1040 ------- 0 0.0 5.0 21 36
r 3.76 1 2 tcp 1040 ------- 0 0.0 5.0 23 38
+ 3.76 2 3 tcp 1040 ------- 0 0.0 5.0 23 38
- 3.76 2 3 tcp 1040 ------- 0 0.0 5.0 23 38
r 3.7616 0 1 tcp 1040 ------- 0 0.0 5.0 25 40
+ 3.7616 1 2 tcp 1040 ------- 0 0.0 5.0 25 40
- 3.7616 1 2 tcp 1040 ------- 0 0.0 5.0 25 40
- 3.7632 0 1 tcp 1040 ------- 0 0.0 5.0 27 42
r 3.7968 4 5 tcp 1040 ------- 0 0.0 5.0 18 32
+ 3.7968 5 4 ack 40 ------- 0 5.0 0.0 18 49
- 3.7968 5 4 ack 40 ------- 0 5.0 0.0 18 49
r 3.7968 5 4 ack 40 ------- 0 5.0 0.0 17 48
+ 3.7968 4 3 ack 40 ------- 0 5.0 0.0 17 48
- 3.7968 4 3 ack 40 ------- 0 5.0 0.0 17 48
r 3.7968 4 3 ack 40 ------- 0 5.0 0.0 16 47
+ 3.7968 3 2 ack 40 ------- 0 5.0 0.0 16 47
- 3.7968 3 2 ack 40 ------- 0 5.0 0.0 16 47
r 3.7968 3 2 ack 40 ------- 0 5.0 0.0 15 46
+ 3.7968 2 1 ack 40 ------- 0 5.0 0.0 15 46
- 3.7968 2 1 ack 40 ------- 0 5.0 0.0 15 46
r 3.7984 3 4 tcp 1040 ------- 0 0.0 5.0 20 35
+ 3.7984 4 5 tcp 1040 ------- 0 0.0 5.0 20 35
- 3.7984 4 5 tcp 1040 ------- 0 0.0 5.0 20 35
r 3.8 2 3 tcp 1040 ------- 0 0.0 5.0 22 37
+ 3.8 3 4 tcp 1040 ------- 0 0.0 5.0 22 37
- 3.8 3 4 tcp 1040 ------- 0 0.0 5.0 22 37
r 3.8016 1 2 tcp 1040 ------- 0 0.0 5.0 24 39
+ 3.8016 2 3 tcp 1040 ------- 0 0.0 5.0 24 39
- 3.8016 2 3 tcp 1040 ------- 0 0.0 5.0 24 39
r 3.8032 0 1 tcp 1040 ------- 0 0.0 5.0 26 41
+ 3.8032 1 2 tcp 1040 ------- 0 0.0 5.0 26 41
- 3.8032 1 2 tcp 1040 ------- 0 0.0 5.0 26 41
- 3.8048 0 1 tcp 1040 ------- 0 0.0 5.0 28 43
r 3.8384 4 5 tcp 1040 ------- 0 0.0 5.0 19 34
+ 3.8384 5 4 ack 40 ------- 0 5.0 0.0 19 50
- 3.8384 5 4 ack 40 ------- 0 5.0 0.0 19 50
r 3.8384 5 4 ack 40 ------- 0 5.0 0.0 18 49
+ 3.8384 4 3 ack 40 ------- 0 5.0 0.0 18 49
- 3.8384 4 3 ack 40 ------- 0 5.0 0.0 18 49
r 3.8384 4 3 ack 40 ------- 0 5.0 0.0 17 48
+ 3.8384 3 2 ack 40 ------- 0 5.0 0.0 17 48
- 3.8384 3 2 ack 40 ------- 0 5.0 0.0 17 48
r 3.8384 3 2 ack 40 ------- 0 5.0 0.0 16 47
+ 3.8384 2 1 ack 40 ------- 0 5.0 0.0 16 47
- 3.8384 2 1 ack 40 ------- 0 5.0 0.0 16 47
r 3.8384 2 1 ack 40 ------- 0 5.0 0.0 15 46
+ 3.8384 1 0 ack 40 ------- 0 5.0 0.0 15 46
- 3.8384 1 0 ack 40 ------- 0 5.0 0.0 15 46
r 3.84 3 4 tcp 1040 ------- 0 0.0 5.0 21 36
+ 3.84 4 5 tcp 1040 ------- 0 0.0 5.0 21 36
- 3.84 4 5 tcp 1040 ------- 0 0.0 5.0 21 36
r 3.8416 2 3 tcp 1040 ------- 0 0.0 5.0 23 38
+ 3.8416 3 4 tcp 1040 ------- 0 0.0 5.0 23 38
- 3.8416 3 4 tcp 1040 ------- 0 0.0 5.0 23 38
r 3.8432 1 2 tcp 1040 ------- 0 0.0 5.0 25 40
+ 3.8432 2 3 tcp 1040 ------- 0 0.0 5.0 25 40
- 3.8432 2 3 tcp 1040 ------- 0 0.0 5.0 25 40
r 3.8448 0 1 tcp 1040 ------- 0 0.0 5.0 27 42
+ 3.8448 1 2 tcp 1040 ------- 0 0.0 5.0 27 42
- 3.8448 1 2 tcp 1040 ------- 0 0.0 5.0 27 42
- 3.8464 0 1 tcp 1040 ------- 0 0.0 5.0 29 44
r 3.88 4 5 tcp 1040 ------- 0 0.0 5.0 20 35
+ 3.88 5 4 ack 40 ------- 0 5.0 0.0 20 51
- 3.88 5 4 ack 40 ------- 0 5.0 0.0 20 51
r 3.88 5 4 ack 40 ------- 0 5.0 0.0 19 50
+ 3.88 4 3 ack 40 ------- 0 5.0 0.0 19 50
- 3.88 4 3 ack 40 ------- 0 5.0 0.0 19 50
r 3.88 4 3 ack 40 ------- 0 5.0 0.0 18 49
+ 3.88 3 2 ack 40 ------- 0 5.0 0.0 18 49
- 3.88 3 2 ack 40 ------- 0 5.0 0.0 18 49
r 3.88 3 2 ack 40 ------- 0 5.0 0.0 17 48
+ 3.88 2 1 ack 40 ------- 0 5.0 0.0 17 48
- 3.88 2 1 ack 40 ------- 0 5.0 0.0 17 48
r 3.88 2 1 ack 40 ------- 0 5.0 0.0 16 47
+ 3.88 1 0 ack 40 ------- 0 5.0 0.0 16 47
- 3.88 1 0 ack 40 ------- 0 5.0 0.0 16 47
r 3.88 1 0 ack 40 ------- 0 5.0 0.0 15 46
+ 3.88 0 1 tcp 1040 ------- 0 0.0 5.0 31 52
+ 3.88 0 1 tcp 1040 ------- 0 0.0 5.0 32 53
r 3.8816 3 4 tcp 1040 ------- 0 0.0 5.0 22 37
+ 3.8816 4 5 tcp 1040 ------- 0 0.0 5.0 22 37
- 3.8816 4 5 tcp 1040 ------- 0 0.0 5.0 22 37
r 3.8832 2 3 tcp 1040 ------- 0 0.0 5.0 24 39
+ 3.8832 3 4 tcp 1040 ------- 0 0.0 5.0 24 39
- 3.8832 3 4 tcp 1040 ------- 0 0.0 5.0 24 39
r 3.8848 1 2 tcp 1040 ------- 0 0.0 5.0 26 41
+ 3.8848 2 3 tcp 1040 ------- 0 0.0 5.0 26 41
- 3.8848 2 3 tcp 1040 ------- 0 0.0 5.0 26 41
r 3.8864 0 1 tcp 1040 ------- 0 0.0 5.0 28 43
+ 3.8864 1 2 tcp 1040 ------- 0 0.0 5.0 28 43
- 3.8864 1 2 tcp 1040 ------- 0 0.0 5.0 28 43
- 3.888 0 1 tcp 1040 ------- 0 0.0 5.0 30 45
r 3.9216 4 5 tcp 1040 ------- 0 0.0 5.0 21 36
+ 3.9216 5 4 ack 40 ------- 0 5.0 0.0 21 54