v 0.20000000000000001 eval {set sim_annotation {Starting HTTP from 0 to 7}}
+ 0.327629 0 1 exp 40 ------- 0 0.1 7.0 0 0
- 0.327629 0 1 exp 40 ------- 0 0.1 7.0 0 0
r 0.337949 0 1 exp 40 ------- 0 0.1 7.0 0 0
+ 0.337949 1 2 exp 40 ------- 0 0.1 7.0 0 0
- 0.337949 1 2 exp 40 ------- 0 0.1 7.0 0 0
r 0.348269 1 2 exp 40 ------- 0 0.1 7.0 0 0
+ 0.348269 2 7 exp 40 ------- 0 0.1 7.0 0 0
- 0.348269 2 7 exp 40 ------- 0 0.1 7.0 0 0
r 0.358429 2 7 exp 40 ------- 0 0.1 7.0 0 0
+ 0.358429 7 2 ack 40 ------- 0 7.0 0.1 0 1
- 0.358429 7 2 ack 40 ------- 0 7.0 0.1 0 1
r 0.368589 7 2 ack 40 ------- 0 7.0 0.1 0 1
+ 0.368589 2 1 ack 40 ------- 0 7.0 0.1 0 1
- 0.368589 2 1 ack 40 ------- 0 7.0 0.1 0 1
r 0.378909 2 1 ack 40 ------- 0 7.0 0.1 0 1
+ 0.378909 1 0 ack 40 ------- 0 7.0 0.1 0 1
- 0.378909 1 0 ack 40 ------- 0 7.0 0.1 0 1
r 0.389229 1 0 ack 40 ------- 0 7.0 0.1 0 1
+ 0.389229 0 1 exp 1040 ------- 0 0.1 7.0 0 2
- 0.389229 0 1 exp 1040 ------- 0 0.1 7.0 0 2
+ 0.389229 0 1 exp 1040 ------- 0 0.1 7.0 0 3
- 0.397549 0 1 exp 1040 ------- 0 0.1 7.0 0 3
r 0.407549 0 1 exp 1040 ------- 0 0.1 7.0 0 2
+ 0.407549 1 2 exp 1040 ------- 0 0.1 7.0 0 2
- 0.407549 1 2 exp 1040 ------- 0 0.1 7.0 0 2
r 0.415869 0 1 exp 1040 ------- 0 0.1 7.0 0 3
+ 0.415869 1 2 exp 1040 ------- 0 0.1 7.0 0 3
- 0.415869 1 2 exp 1040 ------- 0 0.1 7.0 0 3
r 0.425869 1 2 exp 1040 ------- 0 0.1 7.0 0 2
+ 0.425869 2 7 exp 1040 ------- 0 0.1 7.0 0 2
- 0.425869 2 7 exp 1040 ------- 0 0.1 7.0 0 2
r 0.434189 1 2 exp 1040 ------- 0 0.1 7.0 0 3
+ 0.434189 2 7 exp 1040 ------- 0 0.1 7.0 0 3
- 0.434189 2 7 exp 1040 ------- 0 0.1 7.0 0 3
r 0.440029 2 7 exp 1040 ------- 0 0.1 7.0 0 2
+ 0.440029 7 2 ack 40 ------- 0 7.0 0.1 1 4
- 0.440029 7 2 ack 40 ------- 0 7.0 0.1 1 4
r 0.448349 2 7 exp 1040 ------- 0 0.1 7.0 0 3
+ 0.448349 7 2 ack 40 ------- 0 7.0 0.1 2 5
- 0.448349 7 2 ack 40 ------- 0 7.0 0.1 2 5
r 0.450189 7 2 ack 40 ------- 0 7.0 0.1 1 4
+ 0.450189 2 1 ack 40 ------- 0 7.0 0.1 1 4
- 0.450189 2 1 ack 40 ------- 0 7.0 0.1 1 4
r 0.458509 7 2 ack 40 ------- 0 7.0 0.1 2 5
+ 0.458509 2 1 ack 40 ------- 0 7.0 0.1 2 5
- 0.458509 2 1 ack 40 ------- 0 7.0 0.1 2 5
r 0.460509 2 1 ack 40 ------- 0 7.0 0.1 1 4
+ 0.460509 1 0 ack 40 ------- 0 7.0 0.1 1 4
- 0.460509 1 0 ack 40 ------- 0 7.0 0.1 1 4
r 0.468829 2 1 ack 40 ------- 0 7.0 0.1 2 5
+ 0.468829 1 0 ack 40 ------- 0 7.0 0.1 2 5
- 0.468829 1 0 ack 40 ------- 0 7.0 0.1 2 5
r 0.470829 1 0 ack 40 ------- 0 7.0 0.1 1 4
+ 0.470829 0 1 exp 1040 ------- 0 0.1 7.0 0 6
- 0.470829 0 1 exp 1040 ------- 0 0.1 7.0 0 6
+ 0.470829 0 1 exp 1040 ------- 0 0.1 7.0 0 7
r 0.479149 1 0 ack 40 ------- 0 7.0 0.1 2 5
+ 0.479149 0 1 exp 1040 ------- 0 0.1 7.0 0 8
+ 0.479149 0 1 exp 1040 ------- 0 0.1 7.0 0 9
- 0.479149 0 1 exp 1040 ------- 0 0.1 7.0 0 7
- 0.487469 0 1 exp 1040 ------- 0 0.1 7.0 0 8
r 0.489149 0 1 exp 1040 ------- 0 0.1 7.0 0 6
+ 0.489149 1 2 exp 1040 ------- 0 0.1 7.0 0 6
- 0.489149 1 2 exp 1040 ------- 0 0.1 7.0 0 6
- 0.495789 0 1 exp 1040 ------- 0 0.1 7.0 0 9
r 0.497469 0 1 exp 1040 ------- 0 0.1 7.0 0 7
+ 0.497469 1 2 exp 1040 ------- 0 0.1 7.0 0 7
- 0.497469 1 2 exp 1040 ------- 0 0.1 7.0 0 7
r 0.505789 0 1 exp 1040 ------- 0 0.1 7.0 0 8
+ 0.505789 1 2 exp 1040 ------- 0 0.1 7.0 0 8
- 0.505789 1 2 exp 1040 ------- 0 0.1 7.0 0 8
r 0.507469 1 2 exp 1040 ------- 0 0.1 7.0 0 6
+ 0.507469 2 7 exp 1040 ------- 0 0.1 7.0 0 6
- 0.507469 2 7 exp 1040 ------- 0 0.1 7.0 0 6
r 0.514109 0 1 exp 1040 ------- 0 0.1 7.0 0 9
+ 0.514109 1 2 exp 1040 ------- 0 0.1 7.0 0 9
- 0.514109 1 2 exp 1040 ------- 0 0.1 7.0 0 9
r 0.515789 1 2 exp 1040 ------- 0 0.1 7.0 0 7
+ 0.515789 2 7 exp 1040 ------- 0 0.1 7.0 0 7
- 0.515789 2 7 exp 1040 ------- 0 0.1 7.0 0 7
r 0.521629 2 7 exp 1040 ------- 0 0.1 7.0 0 6
+ 0.521629 7 2 ack 40 ------- 0 7.0 0.1 3 10
- 0.521629 7 2 ack 40 ------- 0 7.0 0.1 3 10
r 0.524109 1 2 exp 1040 ------- 0 0.1 7.0 0 8
+ 0.524109 2 7 exp 1040 ------- 0 0.1 7.0 0 8
- 0.524109 2 7 exp 1040 ------- 0 0.1 7.0 0 8
r 0.529949 2 7 exp 1040 ------- 0 0.1 7.0 0 7
+ 0.529949 7 2 ack 40 ------- 0 7.0 0.1 4 11
- 0.529949 7 2 ack 40 ------- 0 7.0 0.1 4 11
r 0.531789 7 2 ack 40 ------- 0 7.0 0.1 3 10
+ 0.531789 2 1 ack 40 ------- 0 7.0 0.1 3 10
- 0.531789 2 1 ack 40 ------- 0 7.0 0.1 3 10
r 0.532429 1 2 exp 1040 ------- 0 0.1 7.0 0 9
+ 0.532429 2 7 exp 1040 ------- 0 0.1 7.0 0 9
- 0.532429 2 7 exp 1040 ------- 0 0.1 7.0 0 9
r 0.538269 2 7 exp 1040 ------- 0 0.1 7.0 0 8
+ 0.538269 7 2 ack 40 ------- 0 7.0 0.1 5 12
- 0.538269 7 2 ack 40 ------- 0 7.0 0.1 5 12
r 0.540109 7 2 ack 40 ------- 0 7.0 0.1 4 11
+ 0.540109 2 1 ack 40 ------- 0 7.0 0.1 4 11
- 0.540109 2 1 ack 40 ------- 0 7.0 0.1 4 11
r 0.542109 2 1 ack 40 ------- 0 7.0 0.1 3 10
+ 0.542109 1 0 ack 40 ------- 0 7.0 0.1 3 10
- 0.542109 1 0 ack 40 ------- 0 7.0 0.1 3 10
r 0.546589 2 7 exp 1040 ------- 0 0.1 7.0 0 9
+ 0.546589 7 2 ack 40 ------- 0 7.0 0.1 6 13
- 0.546589 7 2 ack 40 ------- 0 7.0 0.1 6 13
r 0.548429 7 2 ack 40 ------- 0 7.0 0.1 5 12
+ 0.548429 2 1 ack 40 ------- 0 7.0 0.1 5 12
- 0.548429 2 1 ack 40 ------- 0 7.0 0.1 5 12
r 0.550429 2 1 ack 40 ------- 0 7.0 0.1 4 11
+ 0.550429 1 0 ack 40 ------- 0 7.0 0.1 4 11
- 0.550429 1 0 ack 40 ------- 0 7.0 0.1 4 11
r 0.552429 1 0 ack 40 ------- 0 7.0 0.1 3 10
+ 0.552429 0 1 exp 1040 ------- 0 0.1 7.0 0 14
- 0.552429 0 1 exp 1040 ------- 0 0.1 7.0 0 14
+ 0.552429 0 1 exp 1040 ------- 0 0.1 7.0 0 15
r 0.556749 7 2 ack 40 ------- 0 7.0 0.1 6 13
+ 0.556749 2 1 ack 40 ------- 0 7.0 0.1 6 13
- 0.556749 2 1 ack 40 ------- 0 7.0 0.1 6 13
r 0.558749 2 1 ack 40 ------- 0 7.0 0.1 5 12
+ 0.558749 1 0 ack 40 ------- 0 7.0 0.1 5 12
- 0.558749 1 0 ack 40 ------- 0 7.0 0.1 5 12
r 0.560749 1 0 ack 40 ------- 0 7.0 0.1 4 11
+ 0.560749 0 1 exp 1040 ------- 0 0.1 7.0 0 16
- 0.560749 0 1 exp 1040 ------- 0 0.1 7.0 0 15
+ 0.563879 0 1 exp 1040 ------- 0 0.1 7.0 0 17
r 0.567069 2 1 ack 40 ------- 0 7.0 0.1 6 13
+ 0.567069 1 0 ack 40 ------- 0 7.0 0.1 6 13
- 0.567069 1 0 ack 40 ------- 0 7.0 0.1 6 13
- 0.569069 0 1 exp 1040 ------- 0 0.1 7.0 0 16
r 0.569069 1 0 ack 40 ------- 0 7.0 0.1 5 12
r 0.570749 0 1 exp 1040 ------- 0 0.1 7.0 0 14
+ 0.570749 1 2 exp 1040 ------- 0 0.1 7.0 0 14
- 0.570749 1 2 exp 1040 ------- 0 0.1 7.0 0 14
- 0.577389 0 1 exp 1040 ------- 0 0.1 7.0 0 17
r 0.577389 1 0 ack 40 ------- 0 7.0 0.1 6 13
r 0.579069 0 1 exp 1040 ------- 0 0.1 7.0 0 15
+ 0.579069 1 2 exp 1040 ------- 0 0.1 7.0 0 15
- 0.579069 1 2 exp 1040 ------- 0 0.1 7.0 0 15
r 0.587389 0 1 exp 1040 ------- 0 0.1 7.0 0 16
+ 0.587389 1 2 exp 1040 ------- 0 0.1 7.0 0 16
- 0.587389 1 2 exp 1040 ------- 0 0.1 7.0 0 16
r 0.589069 1 2 exp 1040 ------- 0 0.1 7.0 0 14
+ 0.589069 2 7 exp 1040 ------- 0 0.1 7.0 0 14
- 0.589069 2 7 exp 1040 ------- 0 0.1 7.0 0 14
+ 0.590129 0 1 exp 1040 ------- 0 0.1 7.0 0 18
- 0.590129 0 1 exp 1040 ------- 0 0.1 7.0 0 18
r 0.595709 0 1 exp 1040 ------- 0 0.1 7.0 0 17
+ 0.595709 1 2 exp 1040 ------- 0 0.1 7.0 0 17
- 0.595709 1 2 exp 1040 ------- 0 0.1 7.0 0 17
r 0.597389 1 2 exp 1040 ------- 0 0.1 7.0 0 15
+ 0.597389 2 7 exp 1040 ------- 0 0.1 7.0 0 15
- 0.597389 2 7 exp 1040 ------- 0 0.1 7.0 0 15
r 0.603229 2 7 exp 1040 ------- 0 0.1 7.0 0 14
+ 0.603229 7 2 ack 40 ------- 0 7.0 0.1 7 19
- 0.603229 7 2 ack 40 ------- 0 7.0 0.1 7 19
r 0.605709 1 2 exp 1040 ------- 0 0.1 7.0 0 16
+ 0.605709 2 7 exp 1040 ------- 0 0.1 7.0 0 16
- 0.605709 2 7 exp 1040 ------- 0 0.1 7.0 0 16
r 0.608449 0 1 exp 1040 ------- 0 0.1 7.0 0 18
+ 0.608449 1 2 exp 1040 ------- 0 0.1 7.0 0 18
- 0.608449 1 2 exp 1040 ------- 0 0.1 7.0 0 18
r 0.611549 2 7 exp 1040 ------- 0 0.1 7.0 0 15
+ 0.611549 7 2 ack 40 ------- 0 7.0 0.1 8 20
- 0.611549 7 2 ack 40 ------- 0 7.0 0.1 8 20
r 0.613389 7 2 ack 40 ------- 0 7.0 0.1 7 19
+ 0.613389 2 1 ack 40 ------- 0 7.0 0.1 7 19
- 0.613389 2 1 ack 40 ------- 0 7.0 0.1 7 19
r 0.614029 1 2 exp 1040 ------- 0 0.1 7.0 0 17
+ 0.614029 2 7 exp 1040 ------- 0 0.1 7.0 0 17
- 0.614029 2 7 exp 1040 ------- 0 0.1 7.0 0 17
+ 0.616379 0 1 exp 1040 ------- 0 0.1 7.0 0 21
- 0.616379 0 1 exp 1040 ------- 0 0.1 7.0 0 21
r 0.619869 2 7 exp 1040 ------- 0 0.1 7.0 0 16
+ 0.619869 7 2 ack 40 ------- 0 7.0 0.1 9 22
- 0.619869 7 2 ack 40 ------- 0 7.0 0.1 9 22
r 0.621709 7 2 ack 40 ------- 0 7.0 0.1 8 20
+ 0.621709 2 1 ack 40 ------- 0 7.0 0.1 8 20
- 0.621709 2 1 ack 40 ------- 0 7.0 0.1 8 20
r 0.623709 2 1 ack 40 ------- 0 7.0 0.1 7 19
+ 0.623709 1 0 ack 40 ------- 0 7.0 0.1 7 19
- 0.623709 1 0 ack 40 ------- 0 7.0 0.1 7 19
r 0.626769 1 2 exp 1040 ------- 0 0.1 7.0 0 18
+ 0.626769 2 7 exp 1040 ------- 0 0.1 7.0 0 18
- 0.626769 2 7 exp 1040 ------- 0 0.1 7.0 0 18
r 0.628189 2 7 exp 1040 ------- 0 0.1 7.0 0 17
+ 0.628189 7 2 ack 40 ------- 0 7.0 0.1 10 23
- 0.628189 7 2 ack 40 ------- 0 7.0 0.1 10 23
r 0.630029 7 2 ack 40 ------- 0 7.0 0.1 9 22
+ 0.630029 2 1 ack 40 ------- 0 7.0 0.1 9 22
- 0.630029 2 1 ack 40 ------- 0 7.0 0.1 9 22
r 0.632029 2 1 ack 40 ------- 0 7.0 0.1 8 20
+ 0.632029 1 0 ack 40 ------- 0 7.0 0.1 8 20
- 0.632029 1 0 ack 40 ------- 0 7.0 0.1 8 20
r 0.634029 1 0 ack 40 ------- 0 7.0 0.1 7 19
r 0.634699 0 1 exp 1040 ------- 0 0.1 7.0 0 21
+ 0.634699 1 2 exp 1040 ------- 0 0.1 7.0 0 21
- 0.634699 1 2 exp 1040 ------- 0 0.1 7.0 0 21
r 0.638349 7 2 ack 40 ------- 0 7.0 0.1 10 23
+ 0.638349 2 1 ack 40 ------- 0 7.0 0.1 10 23
- 0.638349 2 1 ack 40 ------- 0 7.0 0.1 10 23
r 0.640349 2 1 ack 40 ------- 0 7.0 0.1 9 22
+ 0.640349 1 0 ack 40 ------- 0 7.0 0.1 9 22
- 0.640349 1 0 ack 40 ------- 0 7.0 0.1 9 22
r 0.640929 2 7 exp 1040 ------- 0 0.1 7.0 0 18
+ 0.640929 7 2 ack 40 ------- 0 7.0 0.1 11 24
- 0.640929 7 2 ack 40 ------- 0 7.0 0.1 11 24
r 0.642349 1 0 ack 40 ------- 0 7.0 0.1 8 20
+ 0.642629 0 1 exp 1040 ------- 0 0.1 7.0 0 25
- 0.642629 0 1 exp 1040 ------- 0 0.1 7.0 0 25
r 0.648669 2 1 ack 40 ------- 0 7.0 0.1 10 23
+ 0.648669 1 0 ack 40 ------- 0 7.0 0.1 10 23
- 0.648669 1 0 ack 40 ------- 0 7.0 0.1 10 23
r 0.650669 1 0 ack 40 ------- 0 7.0 0.1 9 22
r 0.651089 7 2 ack 40 ------- 0 7.0 0.1 11 24
+ 0.651089 2 1 ack 40 ------- 0 7.0 0.1 11 24
- 0.651089 2 1 ack 40 ------- 0 7.0 0.1 11 24
r 0.653019 1 2 exp 1040 ------- 0 0.1 7.0 0 21
+ 0.653019 2 7 exp 1040 ------- 0 0.1 7.0 0 21
- 0.653019 2 7 exp 1040 ------- 0 0.1 7.0 0 21
r 0.658989 1 0 ack 40 ------- 0 7.0 0.1 10 23
r 0.660949 0 1 exp 1040 ------- 0 0.1 7.0 0 25
+ 0.660949 1 2 exp 1040 ------- 0 0.1 7.0 0 25
- 0.660949 1 2 exp 1040 ------- 0 0.1 7.0 0 25
r 0.661409 2 1 ack 40 ------- 0 7.0 0.1 11 24
+ 0.661409 1 0 ack 40 ------- 0 7.0 0.1 11 24
- 0.661409 1 0 ack 40 ------- 0 7.0 0.1 11 24
r 0.667179 2 7 exp 1040 ------- 0 0.1 7.0 0 21
+ 0.667179 7 2 ack 40 ------- 0 7.0 0.1 12 26
- 0.667179 7 2 ack 40 ------- 0 7.0 0.1 12 26
+ 0.668879 0 1 exp 1040 ------- 0 0.1 7.0 0 27
- 0.668879 0 1 exp 1040 ------- 0 0.1 7.0 0 27
r 0.671729 1 0 ack 40 ------- 0 7.0 0.1 11 24
r 0.677339 7 2 ack 40 ------- 0 7.0 0.1 12 26
+ 0.677339 2 1 ack 40 ------- 0 7.0 0.1 12 26
- 0.677339 2 1 ack 40 ------- 0 7.0 0.1 12 26
r 0.679269 1 2 exp 1040 ------- 0 0.1 7.0 0 25
+ 0.679269 2 7 exp 1040 ------- 0 0.1 7.0 0 25
- 0.679269 2 7 exp 1040 ------- 0 0.1 7.0 0 25
r 0.687199 0 1 exp 1040 ------- 0 0.1 7.0 0 27
+ 0.687199 1 2 exp 1040 ------- 0 0.1 7.0 0 27
- 0.687199 1 2 exp 1040 ------- 0 0.1 7.0 0 27
r 0.687659 2 1 ack 40 ------- 0 7.0 0.1 12 26
+ 0.687659 1 0 ack 40 ------- 0 7.0 0.1 12 26
- 0.687659 1 0 ack 40 ------- 0 7.0 0.1 12 26
r 0.693429 2 7 exp 1040 ------- 0 0.1 7.0 0 25
+ 0.693429 7 2 ack 40 ------- 0 7.0 0.1 13 28
- 0.693429 7 2 ack 40 ------- 0 7.0 0.1 13 28
+ 0.695129 0 1 exp 1040 ------- 0 0.1 7.0 0 29
- 0.695129 0 1 exp 1040 ------- 0 0.1 7.0 0 29
r 0.697979 1 0 ack 40 ------- 0 7.0 0.1 12 26
r 0.703589 7 2 ack 40 ------- 0 7.0 0.1 13 28
+ 0.703589 2 1 ack 40 ------- 0 7.0 0.1 13 28
- 0.703589 2 1 ack 40 ------- 0 7.0 0.1 13 28
r 0.705519 1 2 exp 1040 ------- 0 0.1 7.0 0 27
+ 0.705519 2 7 exp 1040 ------- 0 0.1 7.0 0 27
- 0.705519 2 7 exp 1040 ------- 0 0.1 7.0 0 27
r 0.713449 0 1 exp 1040 ------- 0 0.1 7.0 0 29
+ 0.713449 1 2 exp 1040 ------- 0 0.1 7.0 0 29
- 0.713449 1 2 exp 1040 ------- 0 0.1 7.0 0 29
r 0.713909 2 1 ack 40 ------- 0 7.0 0.1 13 28
+ 0.713909 1 0 ack 40 ------- 0 7.0 0.1 13 28
- 0.713909 1 0 ack 40 ------- 0 7.0 0.1 13 28
r 0.719679 2 7 exp 1040 ------- 0 0.1 7.0 0 27
+ 0.719679 7 2 ack 40 ------- 0 7.0 0.1 14 30
- 0.719679 7 2 ack 40 ------- 0 7.0 0.1 14 30
+ 0.721379 0 1 exp 1040 ------- 0 0.1 7.0 0 31
- 0.721379 0 1 exp 1040 ------- 0 0.1 7.0 0 31
r 0.724229 1 0 ack 40 ------- 0 7.0 0.1 13 28
r 0.729839 7 2 ack 40 ------- 0 7.0 0.1 14 30
+ 0.729839 2 1 ack 40 ------- 0 7.0 0.1 14 30
- 0.729839 2 1 ack 40 ------- 0 7.0 0.1 14 30
r 0.731769 1 2 exp 1040 ------- 0 0.1 7.0 0 29
+ 0.731769 2 7 exp 1040 ------- 0 0.1 7.0 0 29
- 0.731769 2 7 exp 1040 ------- 0 0.1 7.0 0 29
r 0.739699 0 1 exp 1040 ------- 0 0.1 7.0 0 31
+ 0.739699 1 2 exp 1040 ------- 0 0.1 7.0 0 31
- 0.739699 1 2 exp 1040 ------- 0 0.1 7.0 0 31
r 0.740159 2 1 ack 40 ------- 0 7.0 0.1 14 30
+ 0.740159 1 0 ack 40 ------- 0 7.0 0.1 14 30
- 0.740159 1 0 ack 40 ------- 0 7.0 0.1 14 30
r 0.745929 2 7 exp 1040 ------- 0 0.1 7.0 0 29
+ 0.745929 7 2 ack 40 ------- 0 7.0 0.1 15 32
- 0.745929 7 2 ack 40 ------- 0 7.0 0.1 15 32
+ 0.747629 0 1 exp 1040 ------- 0 0.1 7.0 0 33
- 0.747629 0 1 exp 1040 ------- 0 0.1 7.0 0 33
r 0.750479 1 0 ack 40 ------- 0 7.0 0.1 14 30
r 0.756089 7 2 ack 40 ------- 0 7.0 0.1 15 32
+ 0.756089 2 1 ack 40 ------- 0 7.0 0.1 15 32
- 0.756089 2 1 ack 40 ------- 0 7.0 0.1 15 32
r 0.758019 1 2 exp 1040 ------- 0 0.1 7.0 0 31
+ 0.758019 2 7 exp 1040 ------- 0 0.1 7.0 0 31
- 0.758019 2 7 exp 1040 ------- 0 0.1 7.0 0 31
r 0.765949 0 1 exp 1040 ------- 0 0.1 7.0 0 33
+ 0.765949 1 2 exp 1040 ------- 0 0.1 7.0 0 33
- 0.765949 1 2 exp 1040 ------- 0 0.1 7.0 0 33
r 0.766409 2 1 ack 40 ------- 0 7.0 0.1 15 32
+ 0.766409 1 0 ack 40 ------- 0 7.0 0.1 15 32
- 0.766409 1 0 ack 40 ------- 0 7.0 0.1 15 32
r 0.772179 2 7 exp 1040 ------- 0 0.1 7.0 0 31
+ 0.772179 7 2 ack 40 ------- 0 7.0 0.1 16 34
- 0.772179 7 2 ack 40 ------- 0 7.0 0.1 16 34
+ 0.773879 0 1 exp 1040 ------- 0 0.1 7.0 0 35
- 0.773879 0 1 exp 1040 ------- 0 0.1 7.0 0 35
r 0.776729 1 0 ack 40 ------- 0 7.0 0.1 15 32
r 0.782339 7 2 ack 40 ------- 0 7.0 0.1 16 34
+ 0.782339 2 1 ack 40 ------- 0 7.0 0.1 16 34
- 0.782339 2 1 ack 40 ------- 0 7.0 0.1 16 34
r 0.784269 1 2 exp 1040 ------- 0 0.1 7.0 0 33
+ 0.784269 2 7 exp 1040 ------- 0 0.1 7.0 0 33
- 0.784269 2 7 exp 1040 ------- 0 0.1 7.0 0 33
r 0.792199 0 1 exp 1040 ------- 0 0.1 7.0 0 35
+ 0.792199 1 2 exp 1040 ------- 0 0.1 7.0 0 35
- 0.792199 1 2 exp 1040 ------- 0 0.1 7.0 0 35
r 0.792659 2 1 ack 40 ------- 0 7.0 0.1 16 34
+ 0.792659 1 0 ack 40 ------- 0 7.0 0.1 16 34
- 0.792659 1 0 ack 40 ------- 0 7.0 0.1 16 34
r 0.798429 2 7 exp 1040 ------- 0 0.1 7.0 0 33
+ 0.798429 7 2 ack 40 ------- 0 7.0 0.1 17 36
- 0.798429 7 2 ack 40 ------- 0 7.0 0.1 17 36
+ 0.800129 0 1 exp 1040 ------- 0 0.1 7.0 0 37
- 0.800129 0 1 exp 1040 ------- 0 0.1 7.0 0 37
r 0.802979 1 0 ack 40 ------- 0 7.0 0.1 16 34
r 0.808589 7 2 ack 40 ------- 0 7.0 0.1 17 36
+ 0.808589 2 1 ack 40 ------- 0 7.0 0.1 17 36
- 0.808589 2 1 ack 40 ------- 0 7.0 0.1 17 36
r 0.810519 1 2 exp 1040 ------- 0 0.1 7.0 0 35
+ 0.810519 2 7 exp 1040 ------- 0 0.1 7.0 0 35
- 0.810519 2 7 exp 1040 ------- 0 0.1 7.0 0 35
r 0.818449 0 1 exp 1040 ------- 0 0.1 7.0 0 37
+ 0.818449 1 2 exp 1040 ------- 0 0.1 7.0 0 37
- 0.818449 1 2 exp 1040 ------- 0 0.1 7.0 0 37
r 0.818909 2 1 ack 40 ------- 0 7.0 0.1 17 36
+ 0.818909 1 0 ack 40 ------- 0 7.0 0.1 17 36
- 0.818909 1 0 ack 40 ------- 0 7.0 0.1 17 36
r 0.824679 2 7 exp 1040 ------- 0 0.1 7.0 0 35
+ 0.824679 7 2 ack 40 ------- 0 7.0 0.1 18 38
- 0.824679 7 2 ack 40 ------- 0 7.0 0.1 18 38
+ 0.826379 0 1 exp 1040 ------- 0 0.1 7.0 0 39
- 0.826379 0 1 exp 1040 ------- 0 0.1 7.0 0 39
r 0.829229 1 0 ack 40 ------- 0 7.0 0.1 17 36
r 0.834839 7 2 ack 40 ------- 0 7.0 0.1 18 38
+ 0.834839 2 1 ack 40 ------- 0 7.0 0.1 18 38
- 0.834839 2 1 ack 40 ------- 0 7.0 0.1 18 38
r 0.836769 1 2 exp 1040 ------- 0 0.1 7.0 0 37
+ 0.836769 2 7 exp 1040 ------- 0 0.1 7.0 0 37
- 0.836769 2 7 exp 1040 ------- 0 0.1 7.0 0 37
r 0.844699 0 1 exp 1040 ------- 0 0.1 7.0 0 39
+ 0.844699 1 2 exp 1040 ------- 0 0.1 7.0 0 39
- 0.844699 1 2 exp 1040 ------- 0 0.1 7.0 0 39
r 0.845159 2 1 ack 40 ------- 0 7.0 0.1 18 38
+ 0.845159 1 0 ack 40 ------- 0 7.0 0.1 18 38
- 0.845159 1 0 ack 40 ------- 0 7.0 0.1 18 38
r 0.850929 2 7 exp 1040 ------- 0 0.1 7.0 0 37
+ 0.850929 7 2 ack 40 ------- 0 7.0 0.1 19 40
- 0.850929 7 2 ack 40 ------- 0 7.0 0.1 19 40
+ 0.852629 0 1 exp 1040 ------- 0 0.1 7.0 0 41
- 0.852629 0 1 exp 1040 ------- 0 0.1 7.0 0 41
r 0.855479 1 0 ack 40 ------- 0 7.0 0.1 18 38
r 0.861089 7 2 ack 40 ------- 0 7.0 0.1 19 40
+ 0.861089 2 1 ack 40 ------- 0 7.0 0.1 19 40
- 0.861089 2 1 ack 40 ------- 0 7.0 0.1 19 40
r 0.863019 1 2 exp 1040 ------- 0 0.1 7.0 0 39
+ 0.863019 2 7 exp 1040 ------- 0 0.1 7.0 0 39
- 0.863019 2 7 exp 1040 ------- 0 0.1 7.0 0 39
r 0.870949 0 1 exp 1040 ------- 0 0.1 7.0 0 41
+ 0.870949 1 2 exp 1040 ------- 0 0.1 7.0 0 41
- 0.870949 1 2 exp 1040 ------- 0 0.1 7.0 0 41
r 0.871409 2 1 ack 40 ------- 0 7.0 0.1 19 40
+ 0.871409 1 0 ack 40 ------- 0 7.0 0.1 19 40
- 0.871409 1 0 ack 40 ------- 0 7.0 0.1 19 40
r 0.877179 2 7 exp 1040 ------- 0 0.1 7.0 0 39
+ 0.877179 7 2 ack 40 ------- 0 7.0 0.1 20 42
- 0.877179 7 2 ack 40 ------- 0 7.0 0.1 20 42
+ 0.878879 0 1 exp 1040 ------- 0 0.1 7.0 0 43
- 0.878879 0 1 exp 1040 ------- 0 0.1 7.0 0 43
r 0.881729 1 0 ack 40 ------- 0 7.0 0.1 19 40
r 0.887339 7 2 ack 40 ------- 0 7.0 0.1 20 42
+ 0.887339 2 1 ack 40 ------- 0 7.0 0.1 20 42
- 0.887339 2 1 ack 40 ------- 0 7.0 0.1 20 42
r 0.889269 1 2 exp 1040 ------- 0 0.1 7.0 0 41
+ 0.889269 2 7 exp 1040 ------- 0 0.1 7.0 0 41
- 0.889269 2 7 exp 1040 ------- 0 0.1 7.0 0 41
r 0.897199 0 1 exp 1040 ------- 0 0.1 7.0 0 43
+ 0.897199 1 2 exp 1040 ------- 0 0.1 7.0 0 43
- 0.897199 1 2 exp 1040 ------- 0 0.1 7.0 0 43
r 0.897659 2 1 ack 40 ------- 0 7.0 0.1 20 42
+ 0.897659 1 0 ack 40 ------- 0 7.0 0.1 20 42
- 0.897659 1 0 ack 40 ------- 0 7.0 0.1 20 42
r 0.903429 2 7 exp 1040 ------- 0 0.1 7.0 0 41
+ 0.903429 7 2 ack 40 ------- 0 7.0 0.1 21 44
- 0.903429 7 2 ack 40 ------- 0 7.0 0.1 21 44
r 0.907979 1 0 ack 40 ------- 0 7.0 0.1 20 42
r 0.913589 7 2 ack 40 ------- 0 7.0 0.1 21 44
+ 0.913589 2 1 ack 40 ------- 0 7.0 0.1 21 44
- 0.913589 2 1 ack 40 ------- 0 7.0 0.1 21 44
r 0.915519 1 2 exp 1040 ------- 0 0.1 7.0 0 43
+ 0.915519 2 7 exp 1040 ------- 0 0.1 7.0 0 43
- 0.915519 2 7 exp 1040 ------- 0 0.1 7.0 0 43
r 0.923909 2 1 ack 40 ------- 0 7.0 0.1 21 44
+ 0.923909 1 0 ack 40 ------- 0 7.0 0.1 21 44
- 0.923909 1 0 ack 40 ------- 0 7.0 0.1 21 44
r 0.929679 2 7 exp 1040 ------- 0 0.1 7.0 0 43
+ 0.929679 7 2 ack 40 ------- 0 7.0 0.1 22 45
- 0.929679 7 2 ack 40 ------- 0 7.0 0.1 22 45
r 0.934229 1 0 ack 40 ------- 0 7.0 0.1 21 44
r 0.939839 7 2 ack 40 ------- 0 7.0 0.1 22 45
+ 0.939839 2 1 ack 40 ------- 0 7.0 0.1 22 45
- 0.939839 2 1 ack 40 ------- 0 7.0 0.1 22 45
r 0.950159 2 1 ack 40 ------- 0 7.0 0.1 22 45
+ 0.950159 1 0 ack 40 ------- 0 7.0 0.1 22 45
- 0.950159 1 0 ack 40 ------- 0 7.0 0.1 22 45
r 0.960479 1 0 ack 40 ------- 0 7.0 0.1 22 45
+ 1 0 1 tcp 40 ------- 0 0.0 8.0 0 46
- 1 0 1 tcp 40 ------- 0 0.0 8.0 0 46
v 1 eval {set sim_annotation {Starting FTP from 0 to 8}}
r 1.01032 0 1 tcp 40 ------- 0 0.0 8.0 0 46
+ 1.01032 1 2 tcp 40 ------- 0 0.0 8.0 0 46
- 1.01032 1 2 tcp 40 ------- 0 0.0 8.0 0 46
r 1.02064 1 2 tcp 40 ------- 0 0.0 8.0 0 46
+ 1.02064 2 7 tcp 40 ------- 0 0.0 8.0 0 46
- 1.02064 2 7 tcp 40 ------- 0 0.0 8.0 0 46
r 1.0308 2 7 tcp 40 ------- 0 0.0 8.0 0 46
+ 1.0308 7 8 tcp 40 ------- 0 0.0 8.0 0 46
- 1.0308 7 8 tcp 40 ------- 0 0.0 8.0 0 46
r 1.04096 7 8 tcp 40 ------- 0 0.0 8.0 0 46
+ 1.04096 8 7 ack 40 ------- 0 8.0 0.0 0 47
- 1.04096 8 7 ack 40 ------- 0 8.0 0.0 0 47
r 1.05112 8 7 ack 40 ------- 0 8.0 0.0 0 47
+ 1.05112 7 2 ack 40 ------- 0 8.0 0.0 0 47
- 1.05112 7 2 ack 40 ------- 0 8.0 0.0 0 47
r 1.06128 7 2 ack 40 ------- 0 8.0 0.0 0 47
+ 1.06128 2 1 ack 40 ------- 0 8.0 0.0 0 47
- 1.06128 2 1 ack 40 ------- 0 8.0 0.0 0 47
r 1.0716 2 1 ack 40 ------- 0 8.0 0.0 0 47
+ 1.0716 1 0 ack 40 ------- 0 8.0 0.0 0 47
- 1.0716 1 0 ack 40 ------- 0 8.0 0.0 0 47
r 1.08192 1 0 ack 40 ------- 0 8.0 0.0 0 47
+ 1.08192 0 1 tcp 1040 ------- 0 0.0 8.0 1 48
- 1.08192 0 1 tcp 1040 ------- 0 0.0 8.0 1 48
+ 1.08192 0 1 tcp 1040 ------- 0 0.0 8.0 2 49
- 1.09024 0 1 tcp 1040 ------- 0 0.0 8.0 2 49
r 1.10024 0 1 tcp 1040 ------- 0 0.0 8.0 1 48
+ 1.10024 1 2 tcp 1040 ------- 0 0.0 8.0 1 48
- 1.10024 1 2 tcp 1040 ------- 0 0.0 8.0 1 48
r 1.10856 0 1 tcp 1040 ------- 0 0.0 8.0 2 49
+ 1.10856 1 2 tcp 1040 ------- 0 0.0 8.0 2 49
- 1.10856 1 2 tcp 1040 ------- 0 0.0 8.0 2 49
r 1.11856 1 2 tcp 1040 ------- 0 0.0 8.0 1 48
+ 1.11856 2 7 tcp 1040 ------- 0 0.0 8.0 1 48
- 1.11856 2 7 tcp 1040 ------- 0 0.0 8.0 1 48
r 1.12688 1 2 tcp 1040 ------- 0 0.0 8.0 2 49
+ 1.12688 2 7 tcp 1040 ------- 0 0.0 8.0 2 49
- 1.12688 2 7 tcp 1040 ------- 0 0.0 8.0 2 49
+ 1.12916 0 1 exp 1040 ------- 0 0.1 7.0 0 50
- 1.12916 0 1 exp 1040 ------- 0 0.1 7.0 0 50
r 1.13272 2 7 tcp 1040 ------- 0 0.0 8.0 1 48
+ 1.13272 7 8 tcp 1040 ------- 0 0.0 8.0 1 48
- 1.13272 7 8 tcp 1040 ------- 0 0.0 8.0 1 48
r 1.14104 2 7 tcp 1040 ------- 0 0.0 8.0 2 49
+ 1.14104 7 8 tcp 1040 ------- 0 0.0 8.0 2 49
- 1.14104 7 8 tcp 1040 ------- 0 0.0 8.0 2 49
r 1.14688 7 8 tcp 1040 ------- 0 0.0 8.0 1 48
+ 1.14688 8 7 ack 40 ------- 0 8.0 0.0 1 51
- 1.14688 8 7 ack 40 ------- 0 8.0 0.0 1 51
r 1.14748 0 1 exp 1040 ------- 0 0.1 7.0 0 50
+ 1.14748 1 2 exp 1040 ------- 0 0.1 7.0 0 50
- 1.14748 1 2 exp 1040 ------- 0 0.1 7.0 0 50
r 1.1552 7 8 tcp 1040 ------- 0 0.0 8.0 2 49
+ 1.1552 8 7 ack 40 ------- 0 8.0 0.0 2 52
- 1.1552 8 7 ack 40 ------- 0 8.0 0.0 2 52
+ 1.15541 0 1 exp 1040 ------- 0 0.1 7.0 0 53
- 1.15541 0 1 exp 1040 ------- 0 0.1 7.0 0 53
r 1.15704 8 7 ack 40 ------- 0 8.0 0.0 1 51
+ 1.15704 7 2 ack 40 ------- 0 8.0 0.0 1 51
- 1.15704 7 2 ack 40 ------- 0 8.0 0.0 1 51
r 1.16536 8 7 ack 40 ------- 0 8.0 0.0 2 52
+ 1.16536 7 2 ack 40 ------- 0 8.0 0.0 2 52
- 1.16536 7 2 ack 40 ------- 0 8.0 0.0 2 52
r 1.1658 1 2 exp 1040 ------- 0 0.1 7.0 0 50
+ 1.1658 2 7 exp 1040 ------- 0 0.1 7.0 0 50
- 1.1658 2 7 exp 1040 ------- 0 0.1 7.0 0 50
r 1.1672 7 2 ack 40 ------- 0 8.0 0.0 1 51
+ 1.1672 2 1 ack 40 ------- 0 8.0 0.0 1 51
- 1.1672 2 1 ack 40 ------- 0 8.0 0.0 1 51
r 1.17373 0 1 exp 1040 ------- 0 0.1 7.0 0 53
+ 1.17373 1 2 exp 1040 ------- 0 0.1 7.0 0 53
- 1.17373 1 2 exp 1040 ------- 0 0.1 7.0 0 53
r 1.17552 7 2 ack 40 ------- 0 8.0 0.0 2 52
+ 1.17552 2 1 ack 40 ------- 0 8.0 0.0 2 52
- 1.17552 2 1 ack 40 ------- 0 8.0 0.0 2 52
r 1.17752 2 1 ack 40 ------- 0 8.0 0.0 1 51
+ 1.17752 1 0 ack 40 ------- 0 8.0 0.0 1 51
- 1.17752 1 0 ack 40 ------- 0 8.0 0.0 1 51
r 1.17996 2 7 exp 1040 ------- 0 0.1 7.0 0 50
+ 1.17996 7 2 ack 40 ------- 0 7.0 0.1 23 54
- 1.17996 7 2 ack 40 ------- 0 7.0 0.1 23 54
+ 1.18166 0 1 exp 1040 ------- 0 0.1 7.0 0 55
- 1.18166 0 1 exp 1040 ------- 0 0.1 7.0 0 55
r 1.18584 2 1 ack 40 ------- 0 8.0 0.0 2 52
+ 1.18584 1 0 ack 40 ------- 0 8.0 0.0 2 52
- 1.18584 1 0 ack 40 ------- 0 8.0 0.0 2 52
r 1.18784 1 0 ack 40 ------- 0 8.0 0.0 1 51
+ 1.18784 0 1 tcp 1040 ------- 0 0.0 8.0 3 56
+ 1.18784 0 1 tcp 1040 ------- 0 0.0 8.0 4 57
- 1.18998 0 1 tcp 1040 ------- 0 0.0 8.0 3 56
r 1.19012 7 2 ack 40 ------- 0 7.0 0.1 23 54
+ 1.19012 2 1 ack 40 ------- 0 7.0 0.1 23 54
- 1.19012 2 1 ack 40 ------- 0 7.0 0.1 23 54
r 1.19205 1 2 exp 1040 ------- 0 0.1 7.0 0 53
+ 1.19205 2 7 exp 1040 ------- 0 0.1 7.0 0 53
- 1.19205 2 7 exp 1040 ------- 0 0.1 7.0 0 53
r 1.19616 1 0 ack 40 ------- 0 8.0 0.0 2 52
+ 1.19616 0 1 tcp 1040 ------- 0 0.0 8.0 5 58
+ 1.19616 0 1 tcp 1040 ------- 0 0.0 8.0 6 59
- 1.1983 0 1 tcp 1040 ------- 0 0.0 8.0 4 57
r 1.19998 0 1 exp 1040 ------- 0 0.1 7.0 0 55
+ 1.19998 1 2 exp 1040 ------- 0 0.1 7.0 0 55
- 1.19998 1 2 exp 1040 ------- 0 0.1 7.0 0 55
r 1.20044 2 1 ack 40 ------- 0 7.0 0.1 23 54
+ 1.20044 1 0 ack 40 ------- 0 7.0 0.1 23 54
- 1.20044 1 0 ack 40 ------- 0 7.0 0.1 23 54
r 1.20621 2 7 exp 1040 ------- 0 0.1 7.0 0 53
+ 1.20621 7 2 ack 40 ------- 0 7.0 0.1 24 60
- 1.20621 7 2 ack 40 ------- 0 7.0 0.1 24 60
- 1.20662 0 1 tcp 1040 ------- 0 0.0 8.0 5 58
+ 1.20791 0 1 exp 1040 ------- 0 0.1 7.0 0 61
r 1.2083 0 1 tcp 1040 ------- 0 0.0 8.0 3 56
+ 1.2083 1 2 tcp 1040 ------- 0 0.0 8.0 3 56
- 1.2083 1 2 tcp 1040 ------- 0 0.0 8.0 3 56
r 1.21076 1 0 ack 40 ------- 0 7.0 0.1 23 54
- 1.21494 0 1 tcp 1040 ------- 0 0.0 8.0 6 59
r 1.21637 7 2 ack 40 ------- 0 7.0 0.1 24 60
+ 1.21637 2 1 ack 40 ------- 0 7.0 0.1 24 60
- 1.21637 2 1 ack 40 ------- 0 7.0 0.1 24 60
r 1.21662 0 1 tcp 1040 ------- 0 0.0 8.0 4 57
+ 1.21662 1 2 tcp 1040 ------- 0 0.0 8.0 4 57
- 1.21662 1 2 tcp 1040 ------- 0 0.0 8.0 4 57
r 1.2183 1 2 exp 1040 ------- 0 0.1 7.0 0 55
+ 1.2183 2 7 exp 1040 ------- 0 0.1 7.0 0 55
- 1.2183 2 7 exp 1040 ------- 0 0.1 7.0 0 55
- 1.22326 0 1 exp 1040 ------- 0 0.1 7.0 0 61
r 1.22494 0 1 tcp 1040 ------- 0 0.0 8.0 5 58
+ 1.22494 1 2 tcp 1040 ------- 0 0.0 8.0 5 58
- 1.22494 1 2 tcp 1040 ------- 0 0.0 8.0 5 58
r 1.22662 1 2 tcp 1040 ------- 0 0.0 8.0 3 56
+ 1.22662 2 7 tcp 1040 ------- 0 0.0 8.0 3 56
- 1.22662 2 7 tcp 1040 ------- 0 0.0 8.0 3 56
r 1.22669 2 1 ack 40 ------- 0 7.0 0.1 24 60
+ 1.22669 1 0 ack 40 ------- 0 7.0 0.1 24 60
- 1.22669 1 0 ack 40 ------- 0 7.0 0.1 24 60
r 1.23246 2 7 exp 1040 ------- 0 0.1 7.0 0 55
+ 1.23246 7 2 ack 40 ------- 0 7.0 0.1 25 62
- 1.23246 7 2 ack 40 ------- 0 7.0 0.1 25 62
r 1.23326 0 1 tcp 1040 ------- 0 0.0 8.0 6 59
+ 1.23326 1 2 tcp 1040 ------- 0 0.0 8.0 6 59
- 1.23326 1 2 tcp 1040 ------- 0 0.0 8.0 6 59
+ 1.23416 0 1 exp 1040 ------- 0 0.1 7.0 0 63
- 1.23416 0 1 exp 1040 ------- 0 0.1 7.0 0 63
r 1.23494 1 2 tcp 1040 ------- 0 0.0 8.0 4 57
+ 1.23494 2 7 tcp 1040 ------- 0 0.0 8.0 4 57
- 1.23494 2 7 tcp 1040 ------- 0 0.0 8.0 4 57
r 1.23701 1 0 ack 40 ------- 0 7.0 0.1 24 60
r 1.24078 2 7 tcp 1040 ------- 0 0.0 8.0 3 56
+ 1.24078 7 8 tcp 1040 ------- 0 0.0 8.0 3 56
- 1.24078 7 8 tcp 1040 ------- 0 0.0 8.0 3 56
r 1.24158 0 1 exp 1040 ------- 0 0.1 7.0 0 61
+ 1.24158 1 2 exp 1040 ------- 0 0.1 7.0 0 61
- 1.24158 1 2 exp 1040 ------- 0 0.1 7.0 0 61
r 1.24262 7 2 ack 40 ------- 0 7.0 0.1 25 62
+ 1.24262 2 1 ack 40 ------- 0 7.0 0.1 25 62
- 1.24262 2 1 ack 40 ------- 0 7.0 0.1 25 62
r 1.24326 1 2 tcp 1040 ------- 0 0.0 8.0 5 58
+ 1.24326 2 7 tcp 1040 ------- 0 0.0 8.0 5 58
- 1.24326 2 7 tcp 1040 ------- 0 0.0 8.0 5 58
r 1.2491 2 7 tcp 1040 ------- 0 0.0 8.0 4 57
+ 1.2491 7 8 tcp 1040 ------- 0 0.0 8.0 4 57
- 1.2491 7 8 tcp 1040 ------- 0 0.0 8.0 4 57
r 1.25158 1 2 tcp 1040 ------- 0 0.0 8.0 6 59
+ 1.25158 2 7 tcp 1040 ------- 0 0.0 8.0 6 59
- 1.25158 2 7 tcp 1040 ------- 0 0.0 8.0 6 59
r 1.25248 0 1 exp 1040 ------- 0 0.1 7.0 0 63
+ 1.25248 1 2 exp 1040 ------- 0 0.1 7.0 0 63
- 1.25248 1 2 exp 1040 ------- 0 0.1 7.0 0 63
r 1.25294 2 1 ack 40 ------- 0 7.0 0.1 25 62
+ 1.25294 1 0 ack 40 ------- 0 7.0 0.1 25 62
- 1.25294 1 0 ack 40 ------- 0 7.0 0.1 25 62
r 1.25494 7 8 tcp 1040 ------- 0 0.0 8.0 3 56
+ 1.25494 8 7 ack 40 ------- 0 8.0 0.0 3 64
- 1.25494 8 7 ack 40 ------- 0 8.0 0.0 3 64
r 1.25742 2 7 tcp 1040 ------- 0 0.0 8.0 5 58
+ 1.25742 7 8 tcp 1040 ------- 0 0.0 8.0 5 58
- 1.25742 7 8 tcp 1040 ------- 0 0.0 8.0 5 58
r 1.2599 1 2 exp 1040 ------- 0 0.1 7.0 0 61
+ 1.2599 2 7 exp 1040 ------- 0 0.1 7.0 0 61
- 1.2599 2 7 exp 1040 ------- 0 0.1 7.0 0 61
+ 1.26041 0 1 exp 1040 ------- 0 0.1 7.0 0 65
- 1.26041 0 1 exp 1040 ------- 0 0.1 7.0 0 65
r 1.26326 7 8 tcp 1040 ------- 0 0.0 8.0 4 57
+ 1.26326 8 7 ack 40 ------- 0 8.0 0.0 4 66
- 1.26326 8 7 ack 40 ------- 0 8.0 0.0 4 66
r 1.26326 1 0 ack 40 ------- 0 7.0 0.1 25 62
r 1.2651 8 7 ack 40 ------- 0 8.0 0.0 3 64
+ 1.2651 7 2 ack 40 ------- 0 8.0 0.0 3 64
- 1.2651 7 2 ack 40 ------- 0 8.0 0.0 3 64
r 1.26574 2 7 tcp 1040 ------- 0 0.0 8.0 6 59
+ 1.26574 7 8 tcp 1040 ------- 0 0.0 8.0 6 59
- 1.26574 7 8 tcp 1040 ------- 0 0.0 8.0 6 59
r 1.2708 1 2 exp 1040 ------- 0 0.1 7.0 0 63
+ 1.2708 2 7 exp 1040 ------- 0 0.1 7.0 0 63
- 1.2708 2 7 exp 1040 ------- 0 0.1 7.0 0 63
r 1.27158 7 8 tcp 1040 ------- 0 0.0 8.0 5 58
+ 1.27158 8 7 ack 40 ------- 0 8.0 0.0 5 67
- 1.27158 8 7 ack 40 ------- 0 8.0 0.0 5 67
r 1.27342 8 7 ack 40 ------- 0 8.0 0.0 4 66
+ 1.27342 7 2 ack 40 ------- 0 8.0 0.0 4 66
- 1.27342 7 2 ack 40 ------- 0 8.0 0.0 4 66
r 1.27406 2 7 exp 1040 ------- 0 0.1 7.0 0 61
+ 1.27406 7 2 ack 40 ------- 0 7.0 0.1 26 68
- 1.27406 7 2 ack 40 ------- 0 7.0 0.1 26 68
r 1.27526 7 2 ack 40 ------- 0 8.0 0.0 3 64
+ 1.27526 2 1 ack 40 ------- 0 8.0 0.0 3 64
- 1.27526 2 1 ack 40 ------- 0 8.0 0.0 3 64
r 1.27873 0 1 exp 1040 ------- 0 0.1 7.0 0 65
+ 1.27873 1 2 exp 1040 ------- 0 0.1 7.0 0 65
- 1.27873 1 2 exp 1040 ------- 0 0.1 7.0 0 65
r 1.2799 7 8 tcp 1040 ------- 0 0.0 8.0 6 59
+ 1.2799 8 7 ack 40 ------- 0 8.0 0.0 6 69
- 1.2799 8 7 ack 40 ------- 0 8.0 0.0 6 69
r 1.28174 8 7 ack 40 ------- 0 8.0 0.0 5 67
+ 1.28174 7 2 ack 40 ------- 0 8.0 0.0 5 67
- 1.28174 7 2 ack 40 ------- 0 8.0 0.0 5 67
r 1.28358 7 2 ack 40 ------- 0 8.0 0.0 4 66
+ 1.28358 2 1 ack 40 ------- 0 8.0 0.0 4 66
- 1.28358 2 1 ack 40 ------- 0 8.0 0.0 4 66
r 1.28422 7 2 ack 40 ------- 0 7.0 0.1 26 68
+ 1.28422 2 1 ack 40 ------- 0 7.0 0.1 26 68
- 1.28422 2 1 ack 40 ------- 0 7.0 0.1 26 68
r 1.28496 2 7 exp 1040 ------- 0 0.1 7.0 0 63
+ 1.28496 7 2 ack 40 ------- 0 7.0 0.1 27 70
- 1.28496 7 2 ack 40 ------- 0 7.0 0.1 27 70
r 1.28558 2 1 ack 40 ------- 0 8.0 0.0 3 64
+ 1.28558 1 0 ack 40 ------- 0 8.0 0.0 3 64
- 1.28558 1 0 ack 40 ------- 0 8.0 0.0 3 64
+ 1.28666 0 1 exp 1040 ------- 0 0.1 7.0 0 71
- 1.28666 0 1 exp 1040 ------- 0 0.1 7.0 0 71
r 1.29006 8 7 ack 40 ------- 0 8.0 0.0 6 69
+ 1.29006 7 2 ack 40 ------- 0 8.0 0.0 6 69
- 1.29006 7 2 ack 40 ------- 0 8.0 0.0 6 69
r 1.2919 7 2 ack 40 ------- 0 8.0 0.0 5 67
+ 1.2919 2 1 ack 40 ------- 0 8.0 0.0 5 67
- 1.2919 2 1 ack 40 ------- 0 8.0 0.0 5 67
r 1.2939 2 1 ack 40 ------- 0 8.0 0.0 4 66
+ 1.2939 1 0 ack 40 ------- 0 8.0 0.0 4 66