n -t 0 -s 0 -S DLABEL -l "node 0" -L ""
n -t 0 -s 1 -S DLABEL -l "node 1" -L ""
n -t 0 -s 2 -S DLABEL -l "node 2" -L ""
n -t 0 -s 3 -S DLABEL -l "node 3" -L ""
n -t 0 -s 4 -S DLABEL -l "node 4" -L ""
n -t 0 -s 5 -S DLABEL -l "node 5" -L ""
n -t 0 -s 6 -S DLABEL -l "node 6" -L ""
V -t * -v 1.0a5 -a 0
A -t * -n 1 -p 0 -o 0x7fffffff -c 30 -a 1
A -t * -h 1 -m 1073741823 -s 0
c -t * -i 1 -n green
n -t * -a 4 -s 4 -S UP -v circle -c black -i black
n -t * -a 0 -s 0 -S UP -v circle -c black -i black
n -t * -a 5 -s 5 -S UP -v circle -c black -i black
n -t * -a 1 -s 1 -S UP -v circle -c black -i black
n -t * -a 6 -s 6 -S UP -v circle -c black -i black
n -t * -a 2 -s 2 -S UP -v circle -c black -i black
n -t * -a 3 -s 3 -S UP -v circle -c black -i black
l -t * -s 0 -d 1 -S UP -r 1500000 -D 0.01 -c black -o left-down
l -t * -s 1 -d 2 -S UP -r 1500000 -D 0.01 -c black -o left-down
l -t * -s 2 -d 3 -S UP -r 1500000 -D 0.01 -c black -o right-down
l -t * -s 3 -d 4 -S UP -r 1500000 -D 0.01 -c black -o right
l -t * -s 4 -d 5 -S UP -r 1500000 -D 0.01 -c black -o right-up
l -t * -s 5 -d 6 -S UP -r 1500000 -D 0.01 -c black -o left-up
l -t * -s 6 -d 0 -S UP -r 1500000 -D 0.01 -c black -o left-up
+ -t 0.000169788487334637 -s 0 -d 1 -p rtProtoLS -e 100 -c 0 -i 0 -a 0 -x {0.2 1.1 -1 ------- null}
- -t 0.000169788487334637 -s 0 -d 1 -p rtProtoLS -e 100 -c 0 -i 0 -a 0 -x {0.2 1.1 -1 ------- null}
h -t 0.000169788487334637 -s 0 -d 1 -p rtProtoLS -e 100 -c 0 -i 0 -a 0 -x {0.2 1.1 -1 ------- null}
+ -t 0.000169788487334637 -s 0 -d 6 -p rtProtoLS -e 100 -c 0 -i 1 -a 0 -x {0.2 6.1 -1 ------- null}
- -t 0.000169788487334637 -s 0 -d 6 -p rtProtoLS -e 100 -c 0 -i 1 -a 0 -x {0.2 6.1 -1 ------- null}
h -t 0.000169788487334637 -s 0 -d 6 -p rtProtoLS -e 100 -c 0 -i 1 -a 0 -x {0.2 6.1 -1 ------- null}
+ -t 0.00710233021858257 -s 2 -d 1 -p rtProtoLS -e 100 -c 0 -i 2 -a 0 -x {2.1 1.1 -1 ------- null}
- -t 0.00710233021858257 -s 2 -d 1 -p rtProtoLS -e 100 -c 0 -i 2 -a 0 -x {2.1 1.1 -1 ------- null}
h -t 0.00710233021858257 -s 2 -d 1 -p rtProtoLS -e 100 -c 0 -i 2 -a 0 -x {2.1 1.1 -1 ------- null}
+ -t 0.00710233021858257 -s 2 -d 3 -p rtProtoLS -e 100 -c 0 -i 3 -a 0 -x {2.1 3.2 -1 ------- null}
- -t 0.00710233021858257 -s 2 -d 3 -p rtProtoLS -e 100 -c 0 -i 3 -a 0 -x {2.1 3.2 -1 ------- null}
h -t 0.00710233021858257 -s 2 -d 3 -p rtProtoLS -e 100 -c 0 -i 3 -a 0 -x {2.1 3.2 -1 ------- null}
r -t 0.010703121820668 -s 0 -d 1 -p rtProtoLS -e 100 -c 0 -i 0 -a 0 -x {0.2 1.1 -1 ------- null}
+ -t 0.010703121820668 -s 1 -d 0 -p rtProtoLS -e 20 -c 0 -i 4 -a 0 -x {1.1 0.2 -1 ------- null}
- -t 0.010703121820668 -s 1 -d 0 -p rtProtoLS -e 20 -c 0 -i 4 -a 0 -x {1.1 0.2 -1 ------- null}
h -t 0.010703121820668 -s 1 -d 0 -p rtProtoLS -e 20 -c 0 -i 4 -a 0 -x {1.1 0.2 -1 ------- null}
+ -t 0.010703121820668 -s 1 -d 2 -p rtProtoLS -e 100 -c 0 -i 5 -a 0 -x {1.1 2.1 -1 ------- null}
- -t 0.010703121820668 -s 1 -d 2 -p rtProtoLS -e 100 -c 0 -i 5 -a 0 -x {1.1 2.1 -1 ------- null}
h -t 0.010703121820668 -s 1 -d 2 -p rtProtoLS -e 100 -c 0 -i 5 -a 0 -x {1.1 2.1 -1 ------- null}
r -t 0.010703121820668 -s 0 -d 6 -p rtProtoLS -e 100 -c 0 -i 1 -a 0 -x {0.2 6.1 -1 ------- null}
+ -t 0.010703121820668 -s 6 -d 0 -p rtProtoLS -e 20 -c 0 -i 6 -a 0 -x {6.1 0.2 -1 ------- null}
- -t 0.010703121820668 -s 6 -d 0 -p rtProtoLS -e 20 -c 0 -i 6 -a 0 -x {6.1 0.2 -1 ------- null}
h -t 0.010703121820668 -s 6 -d 0 -p rtProtoLS -e 20 -c 0 -i 6 -a 0 -x {6.1 0.2 -1 ------- null}
+ -t 0.010703121820668 -s 6 -d 5 -p rtProtoLS -e 100 -c 0 -i 7 -a 0 -x {6.1 5.1 -1 ------- null}
- -t 0.010703121820668 -s 6 -d 5 -p rtProtoLS -e 100 -c 0 -i 7 -a 0 -x {6.1 5.1 -1 ------- null}
h -t 0.010703121820668 -s 6 -d 5 -p rtProtoLS -e 100 -c 0 -i 7 -a 0 -x {6.1 5.1 -1 ------- null}
r -t 0.0176356635519159 -s 2 -d 1 -p rtProtoLS -e 100 -c 0 -i 2 -a 0 -x {2.1 1.1 -1 ------- null}
+ -t 0.0176356635519159 -s 1 -d 2 -p rtProtoLS -e 20 -c 0 -i 8 -a 0 -x {1.1 2.1 -1 ------- null}
- -t 0.0176356635519159 -s 1 -d 2 -p rtProtoLS -e 20 -c 0 -i 8 -a 0 -x {1.1 2.1 -1 ------- null}
h -t 0.0176356635519159 -s 1 -d 2 -p rtProtoLS -e 20 -c 0 -i 8 -a 0 -x {1.1 2.1 -1 ------- null}
+ -t 0.0176356635519159 -s 1 -d 0 -p rtProtoLS -e 100 -c 0 -i 9 -a 0 -x {1.1 0.2 -1 ------- null}
- -t 0.0176356635519159 -s 1 -d 0 -p rtProtoLS -e 100 -c 0 -i 9 -a 0 -x {1.1 0.2 -1 ------- null}
h -t 0.0176356635519159 -s 1 -d 0 -p rtProtoLS -e 100 -c 0 -i 9 -a 0 -x {1.1 0.2 -1 ------- null}
r -t 0.0176356635519159 -s 2 -d 3 -p rtProtoLS -e 100 -c 0 -i 3 -a 0 -x {2.1 3.2 -1 ------- null}
+ -t 0.0176356635519159 -s 3 -d 2 -p rtProtoLS -e 20 -c 0 -i 10 -a 0 -x {3.2 2.1 -1 ------- null}
- -t 0.0176356635519159 -s 3 -d 2 -p rtProtoLS -e 20 -c 0 -i 10 -a 0 -x {3.2 2.1 -1 ------- null}
h -t 0.0176356635519159 -s 3 -d 2 -p rtProtoLS -e 20 -c 0 -i 10 -a 0 -x {3.2 2.1 -1 ------- null}
+ -t 0.0176356635519159 -s 3 -d 4 -p rtProtoLS -e 100 -c 0 -i 11 -a 0 -x {3.2 4.1 -1 ------- null}
- -t 0.0176356635519159 -s 3 -d 4 -p rtProtoLS -e 100 -c 0 -i 11 -a 0 -x {3.2 4.1 -1 ------- null}
h -t 0.0176356635519159 -s 3 -d 4 -p rtProtoLS -e 100 -c 0 -i 11 -a 0 -x {3.2 4.1 -1 ------- null}
r -t 0.0208097884873346 -s 1 -d 0 -p rtProtoLS -e 20 -c 0 -i 4 -a 0 -x {1.1 0.2 -1 ------- null}
r -t 0.0208097884873346 -s 6 -d 0 -p rtProtoLS -e 20 -c 0 -i 6 -a 0 -x {6.1 0.2 -1 ------- null}
r -t 0.0212364551540013 -s 1 -d 2 -p rtProtoLS -e 100 -c 0 -i 5 -a 0 -x {1.1 2.1 -1 ------- null}
+ -t 0.0212364551540013 -s 2 -d 1 -p rtProtoLS -e 20 -c 0 -i 12 -a 0 -x {2.1 1.1 -1 ------- null}
- -t 0.0212364551540013 -s 2 -d 1 -p rtProtoLS -e 20 -c 0 -i 12 -a 0 -x {2.1 1.1 -1 ------- null}
h -t 0.0212364551540013 -s 2 -d 1 -p rtProtoLS -e 20 -c 0 -i 12 -a 0 -x {2.1 1.1 -1 ------- null}
+ -t 0.0212364551540013 -s 2 -d 3 -p rtProtoLS -e 100 -c 0 -i 13 -a 0 -x {2.1 3.2 -1 ------- null}
- -t 0.0212364551540013 -s 2 -d 3 -p rtProtoLS -e 100 -c 0 -i 13 -a 0 -x {2.1 3.2 -1 ------- null}
h -t 0.0212364551540013 -s 2 -d 3 -p rtProtoLS -e 100 -c 0 -i 13 -a 0 -x {2.1 3.2 -1 ------- null}
r -t 0.0212364551540013 -s 6 -d 5 -p rtProtoLS -e 100 -c 0 -i 7 -a 0 -x {6.1 5.1 -1 ------- null}
+ -t 0.0212364551540013 -s 5 -d 6 -p rtProtoLS -e 20 -c 0 -i 14 -a 0 -x {5.1 6.1 -1 ------- null}
- -t 0.0212364551540013 -s 5 -d 6 -p rtProtoLS -e 20 -c 0 -i 14 -a 0 -x {5.1 6.1 -1 ------- null}
h -t 0.0212364551540013 -s 5 -d 6 -p rtProtoLS -e 20 -c 0 -i 14 -a 0 -x {5.1 6.1 -1 ------- null}
+ -t 0.0212364551540013 -s 5 -d 4 -p rtProtoLS -e 100 -c 0 -i 15 -a 0 -x {5.1 4.1 -1 ------- null}
- -t 0.0212364551540013 -s 5 -d 4 -p rtProtoLS -e 100 -c 0 -i 15 -a 0 -x {5.1 4.1 -1 ------- null}
h -t 0.0212364551540013 -s 5 -d 4 -p rtProtoLS -e 100 -c 0 -i 15 -a 0 -x {5.1 4.1 -1 ------- null}
r -t 0.0277423302185826 -s 1 -d 2 -p rtProtoLS -e 20 -c 0 -i 8 -a 0 -x {1.1 2.1 -1 ------- null}
r -t 0.0277423302185826 -s 3 -d 2 -p rtProtoLS -e 20 -c 0 -i 10 -a 0 -x {3.2 2.1 -1 ------- null}
r -t 0.0281689968852492 -s 1 -d 0 -p rtProtoLS -e 100 -c 0 -i 9 -a 0 -x {1.1 0.2 -1 ------- null}
+ -t 0.0281689968852492 -s 0 -d 1 -p rtProtoLS -e 20 -c 0 -i 16 -a 0 -x {0.2 1.1 -1 ------- null}
- -t 0.0281689968852492 -s 0 -d 1 -p rtProtoLS -e 20 -c 0 -i 16 -a 0 -x {0.2 1.1 -1 ------- null}
h -t 0.0281689968852492 -s 0 -d 1 -p rtProtoLS -e 20 -c 0 -i 16 -a 0 -x {0.2 1.1 -1 ------- null}
+ -t 0.0281689968852492 -s 0 -d 6 -p rtProtoLS -e 100 -c 0 -i 17 -a 0 -x {0.2 6.1 -1 ------- null}
- -t 0.0281689968852492 -s 0 -d 6 -p rtProtoLS -e 100 -c 0 -i 17 -a 0 -x {0.2 6.1 -1 ------- null}
h -t 0.0281689968852492 -s 0 -d 6 -p rtProtoLS -e 100 -c 0 -i 17 -a 0 -x {0.2 6.1 -1 ------- null}
r -t 0.0281689968852492 -s 3 -d 4 -p rtProtoLS -e 100 -c 0 -i 11 -a 0 -x {3.2 4.1 -1 ------- null}
+ -t 0.0281689968852492 -s 4 -d 3 -p rtProtoLS -e 20 -c 0 -i 18 -a 0 -x {4.1 3.2 -1 ------- null}
- -t 0.0281689968852492 -s 4 -d 3 -p rtProtoLS -e 20 -c 0 -i 18 -a 0 -x {4.1 3.2 -1 ------- null}
h -t 0.0281689968852492 -s 4 -d 3 -p rtProtoLS -e 20 -c 0 -i 18 -a 0 -x {4.1 3.2 -1 ------- null}
+ -t 0.0281689968852492 -s 4 -d 5 -p rtProtoLS -e 100 -c 0 -i 19 -a 0 -x {4.1 5.1 -1 ------- null}
- -t 0.0281689968852492 -s 4 -d 5 -p rtProtoLS -e 100 -c 0 -i 19 -a 0 -x {4.1 5.1 -1 ------- null}
h -t 0.0281689968852492 -s 4 -d 5 -p rtProtoLS -e 100 -c 0 -i 19 -a 0 -x {4.1 5.1 -1 ------- null}
r -t 0.031343121820668 -s 2 -d 1 -p rtProtoLS -e 20 -c 0 -i 12 -a 0 -x {2.1 1.1 -1 ------- null}
r -t 0.031343121820668 -s 5 -d 6 -p rtProtoLS -e 20 -c 0 -i 14 -a 0 -x {5.1 6.1 -1 ------- null}
r -t 0.0317697884873346 -s 2 -d 3 -p rtProtoLS -e 100 -c 0 -i 13 -a 0 -x {2.1 3.2 -1 ------- null}
+ -t 0.0317697884873346 -s 3 -d 2 -p rtProtoLS -e 20 -c 0 -i 20 -a 0 -x {3.2 2.1 -1 ------- null}
- -t 0.0317697884873346 -s 3 -d 2 -p rtProtoLS -e 20 -c 0 -i 20 -a 0 -x {3.2 2.1 -1 ------- null}
h -t 0.0317697884873346 -s 3 -d 2 -p rtProtoLS -e 20 -c 0 -i 20 -a 0 -x {3.2 2.1 -1 ------- null}
+ -t 0.0317697884873346 -s 3 -d 4 -p rtProtoLS -e 100 -c 0 -i 21 -a 0 -x {3.2 4.1 -1 ------- null}
- -t 0.0317697884873346 -s 3 -d 4 -p rtProtoLS -e 100 -c 0 -i 21 -a 0 -x {3.2 4.1 -1 ------- null}
h -t 0.0317697884873346 -s 3 -d 4 -p rtProtoLS -e 100 -c 0 -i 21 -a 0 -x {3.2 4.1 -1 ------- null}
r -t 0.0317697884873346 -s 5 -d 4 -p rtProtoLS -e 100 -c 0 -i 15 -a 0 -x {5.1 4.1 -1 ------- null}
+ -t 0.0317697884873346 -s 4 -d 5 -p rtProtoLS -e 20 -c 0 -i 22 -a 0 -x {4.1 5.1 -1 ------- null}
- -t 0.0317697884873346 -s 4 -d 5 -p rtProtoLS -e 20 -c 0 -i 22 -a 0 -x {4.1 5.1 -1 ------- null}
h -t 0.0317697884873346 -s 4 -d 5 -p rtProtoLS -e 20 -c 0 -i 22 -a 0 -x {4.1 5.1 -1 ------- null}
+ -t 0.0317697884873346 -s 4 -d 3 -p rtProtoLS -e 100 -c 0 -i 23 -a 0 -x {4.1 3.2 -1 ------- null}
- -t 0.0317697884873346 -s 4 -d 3 -p rtProtoLS -e 100 -c 0 -i 23 -a 0 -x {4.1 3.2 -1 ------- null}
h -t 0.0317697884873346 -s 4 -d 3 -p rtProtoLS -e 100 -c 0 -i 23 -a 0 -x {4.1 3.2 -1 ------- null}
r -t 0.0382756635519159 -s 0 -d 1 -p rtProtoLS -e 20 -c 0 -i 16 -a 0 -x {0.2 1.1 -1 ------- null}
r -t 0.0382756635519159 -s 4 -d 3 -p rtProtoLS -e 20 -c 0 -i 18 -a 0 -x {4.1 3.2 -1 ------- null}
r -t 0.0387023302185826 -s 0 -d 6 -p rtProtoLS -e 100 -c 0 -i 17 -a 0 -x {0.2 6.1 -1 ------- null}
+ -t 0.0387023302185826 -s 6 -d 0 -p rtProtoLS -e 20 -c 0 -i 24 -a 0 -x {6.1 0.2 -1 ------- null}
- -t 0.0387023302185826 -s 6 -d 0 -p rtProtoLS -e 20 -c 0 -i 24 -a 0 -x {6.1 0.2 -1 ------- null}
h -t 0.0387023302185826 -s 6 -d 0 -p rtProtoLS -e 20 -c 0 -i 24 -a 0 -x {6.1 0.2 -1 ------- null}
+ -t 0.0387023302185826 -s 6 -d 5 -p rtProtoLS -e 100 -c 0 -i 25 -a 0 -x {6.1 5.1 -1 ------- null}
- -t 0.0387023302185826 -s 6 -d 5 -p rtProtoLS -e 100 -c 0 -i 25 -a 0 -x {6.1 5.1 -1 ------- null}
h -t 0.0387023302185826 -s 6 -d 5 -p rtProtoLS -e 100 -c 0 -i 25 -a 0 -x {6.1 5.1 -1 ------- null}
r -t 0.0387023302185826 -s 4 -d 5 -p rtProtoLS -e 100 -c 0 -i 19 -a 0 -x {4.1 5.1 -1 ------- null}
+ -t 0.0387023302185826 -s 5 -d 4 -p rtProtoLS -e 20 -c 0 -i 26 -a 0 -x {5.1 4.1 -1 ------- null}
- -t 0.0387023302185826 -s 5 -d 4 -p rtProtoLS -e 20 -c 0 -i 26 -a 0 -x {5.1 4.1 -1 ------- null}
h -t 0.0387023302185826 -s 5 -d 4 -p rtProtoLS -e 20 -c 0 -i 26 -a 0 -x {5.1 4.1 -1 ------- null}
+ -t 0.0387023302185826 -s 5 -d 6 -p rtProtoLS -e 100 -c 0 -i 27 -a 0 -x {5.1 6.1 -1 ------- null}
- -t 0.0387023302185826 -s 5 -d 6 -p rtProtoLS -e 100 -c 0 -i 27 -a 0 -x {5.1 6.1 -1 ------- null}
h -t 0.0387023302185826 -s 5 -d 6 -p rtProtoLS -e 100 -c 0 -i 27 -a 0 -x {5.1 6.1 -1 ------- null}
r -t 0.0418764551540013 -s 3 -d 2 -p rtProtoLS -e 20 -c 0 -i 20 -a 0 -x {3.2 2.1 -1 ------- null}
r -t 0.0418764551540013 -s 4 -d 5 -p rtProtoLS -e 20 -c 0 -i 22 -a 0 -x {4.1 5.1 -1 ------- null}
r -t 0.042303121820668 -s 3 -d 4 -p rtProtoLS -e 100 -c 0 -i 21 -a 0 -x {3.2 4.1 -1 ------- null}
+ -t 0.042303121820668 -s 4 -d 3 -p rtProtoLS -e 20 -c 0 -i 28 -a 0 -x {4.1 3.2 -1 ------- null}
- -t 0.042303121820668 -s 4 -d 3 -p rtProtoLS -e 20 -c 0 -i 28 -a 0 -x {4.1 3.2 -1 ------- null}
h -t 0.042303121820668 -s 4 -d 3 -p rtProtoLS -e 20 -c 0 -i 28 -a 0 -x {4.1 3.2 -1 ------- null}
r -t 0.042303121820668 -s 4 -d 3 -p rtProtoLS -e 100 -c 0 -i 23 -a 0 -x {4.1 3.2 -1 ------- null}
+ -t 0.042303121820668 -s 3 -d 4 -p rtProtoLS -e 20 -c 0 -i 29 -a 0 -x {3.2 4.1 -1 ------- null}
- -t 0.042303121820668 -s 3 -d 4 -p rtProtoLS -e 20 -c 0 -i 29 -a 0 -x {3.2 4.1 -1 ------- null}
h -t 0.042303121820668 -s 3 -d 4 -p rtProtoLS -e 20 -c 0 -i 29 -a 0 -x {3.2 4.1 -1 ------- null}
+ -t 0.04406133552271 -s 3 -d 2 -p rtProtoLS -e 100 -c 0 -i 30 -a 0 -x {3.2 2.1 -1 ------- null}
- -t 0.04406133552271 -s 3 -d 2 -p rtProtoLS -e 100 -c 0 -i 30 -a 0 -x {3.2 2.1 -1 ------- null}
h -t 0.04406133552271 -s 3 -d 2 -p rtProtoLS -e 100 -c 0 -i 30 -a 0 -x {3.2 2.1 -1 ------- null}
+ -t 0.04406133552271 -s 3 -d 4 -p rtProtoLS -e 100 -c 0 -i 31 -a 0 -x {3.2 4.1 -1 ------- null}
- -t 0.04406133552271 -s 3 -d 4 -p rtProtoLS -e 100 -c 0 -i 31 -a 0 -x {3.2 4.1 -1 ------- null}
h -t 0.04406133552271 -s 3 -d 4 -p rtProtoLS -e 100 -c 0 -i 31 -a 0 -x {3.2 4.1 -1 ------- null}
r -t 0.0488089968852492 -s 6 -d 0 -p rtProtoLS -e 20 -c 0 -i 24 -a 0 -x {6.1 0.2 -1 ------- null}
r -t 0.0488089968852492 -s 5 -d 4 -p rtProtoLS -e 20 -c 0 -i 26 -a 0 -x {5.1 4.1 -1 ------- null}
r -t 0.0492356635519159 -s 6 -d 5 -p rtProtoLS -e 100 -c 0 -i 25 -a 0 -x {6.1 5.1 -1 ------- null}
+ -t 0.0492356635519159 -s 5 -d 6 -p rtProtoLS -e 20 -c 0 -i 32 -a 0 -x {5.1 6.1 -1 ------- null}
- -t 0.0492356635519159 -s 5 -d 6 -p rtProtoLS -e 20 -c 0 -i 32 -a 0 -x {5.1 6.1 -1 ------- null}
h -t 0.0492356635519159 -s 5 -d 6 -p rtProtoLS -e 20 -c 0 -i 32 -a 0 -x {5.1 6.1 -1 ------- null}
r -t 0.0492356635519159 -s 5 -d 6 -p rtProtoLS -e 100 -c 0 -i 27 -a 0 -x {5.1 6.1 -1 ------- null}
+ -t 0.0492356635519159 -s 6 -d 5 -p rtProtoLS -e 20 -c 0 -i 33 -a 0 -x {6.1 5.1 -1 ------- null}
- -t 0.0492356635519159 -s 6 -d 5 -p rtProtoLS -e 20 -c 0 -i 33 -a 0 -x {6.1 5.1 -1 ------- null}
h -t 0.0492356635519159 -s 6 -d 5 -p rtProtoLS -e 20 -c 0 -i 33 -a 0 -x {6.1 5.1 -1 ------- null}
r -t 0.0524097884873346 -s 4 -d 3 -p rtProtoLS -e 20 -c 0 -i 28 -a 0 -x {4.1 3.2 -1 ------- null}
r -t 0.0524097884873346 -s 3 -d 4 -p rtProtoLS -e 20 -c 0 -i 29 -a 0 -x {3.2 4.1 -1 ------- null}
r -t 0.0545946688560434 -s 3 -d 2 -p rtProtoLS -e 100 -c 0 -i 30 -a 0 -x {3.2 2.1 -1 ------- null}
+ -t 0.0545946688560434 -s 2 -d 3 -p rtProtoLS -e 20 -c 0 -i 34 -a 0 -x {2.1 3.2 -1 ------- null}
- -t 0.0545946688560434 -s 2 -d 3 -p rtProtoLS -e 20 -c 0 -i 34 -a 0 -x {2.1 3.2 -1 ------- null}
h -t 0.0545946688560434 -s 2 -d 3 -p rtProtoLS -e 20 -c 0 -i 34 -a 0 -x {2.1 3.2 -1 ------- null}
+ -t 0.0545946688560434 -s 2 -d 1 -p rtProtoLS -e 100 -c 0 -i 35 -a 0 -x {2.1 1.1 -1 ------- null}
- -t 0.0545946688560434 -s 2 -d 1 -p rtProtoLS -e 100 -c 0 -i 35 -a 0 -x {2.1 1.1 -1 ------- null}
h -t 0.0545946688560434 -s 2 -d 1 -p rtProtoLS -e 100 -c 0 -i 35 -a 0 -x {2.1 1.1 -1 ------- null}
r -t 0.0545946688560434 -s 3 -d 4 -p rtProtoLS -e 100 -c 0 -i 31 -a 0 -x {3.2 4.1 -1 ------- null}
+ -t 0.0545946688560434 -s 4 -d 3 -p rtProtoLS -e 20 -c 0 -i 36 -a 0 -x {4.1 3.2 -1 ------- null}
- -t 0.0545946688560434 -s 4 -d 3 -p rtProtoLS -e 20 -c 0 -i 36 -a 0 -x {4.1 3.2 -1 ------- null}
h -t 0.0545946688560434 -s 4 -d 3 -p rtProtoLS -e 20 -c 0 -i 36 -a 0 -x {4.1 3.2 -1 ------- null}
+ -t 0.0545946688560434 -s 4 -d 5 -p rtProtoLS -e 100 -c 0 -i 37 -a 0 -x {4.1 5.1 -1 ------- null}
- -t 0.0545946688560434 -s 4 -d 5 -p rtProtoLS -e 100 -c 0 -i 37 -a 0 -x {4.1 5.1 -1 ------- null}
h -t 0.0545946688560434 -s 4 -d 5 -p rtProtoLS -e 100 -c 0 -i 37 -a 0 -x {4.1 5.1 -1 ------- null}
r -t 0.0593423302185826 -s 5 -d 6 -p rtProtoLS -e 20 -c 0 -i 32 -a 0 -x {5.1 6.1 -1 ------- null}
r -t 0.0593423302185826 -s 6 -d 5 -p rtProtoLS -e 20 -c 0 -i 33 -a 0 -x {6.1 5.1 -1 ------- null}
r -t 0.06470133552271 -s 2 -d 3 -p rtProtoLS -e 20 -c 0 -i 34 -a 0 -x {2.1 3.2 -1 ------- null}
r -t 0.06470133552271 -s 4 -d 3 -p rtProtoLS -e 20 -c 0 -i 36 -a 0 -x {4.1 3.2 -1 ------- null}
r -t 0.0651280021893767 -s 2 -d 1 -p rtProtoLS -e 100 -c 0 -i 35 -a 0 -x {2.1 1.1 -1 ------- null}
+ -t 0.0651280021893767 -s 1 -d 2 -p rtProtoLS -e 20 -c 0 -i 38 -a 0 -x {1.1 2.1 -1 ------- null}
- -t 0.0651280021893767 -s 1 -d 2 -p rtProtoLS -e 20 -c 0 -i 38 -a 0 -x {1.1 2.1 -1 ------- null}
h -t 0.0651280021893767 -s 1 -d 2 -p rtProtoLS -e 20 -c 0 -i 38 -a 0 -x {1.1 2.1 -1 ------- null}
+ -t 0.0651280021893767 -s 1 -d 0 -p rtProtoLS -e 100 -c 0 -i 39 -a 0 -x {1.1 0.2 -1 ------- null}
- -t 0.0651280021893767 -s 1 -d 0 -p rtProtoLS -e 100 -c 0 -i 39 -a 0 -x {1.1 0.2 -1 ------- null}
h -t 0.0651280021893767 -s 1 -d 0 -p rtProtoLS -e 100 -c 0 -i 39 -a 0 -x {1.1 0.2 -1 ------- null}
r -t 0.0651280021893767 -s 4 -d 5 -p rtProtoLS -e 100 -c 0 -i 37 -a 0 -x {4.1 5.1 -1 ------- null}
+ -t 0.0651280021893767 -s 5 -d 4 -p rtProtoLS -e 20 -c 0 -i 40 -a 0 -x {5.1 4.1 -1 ------- null}
- -t 0.0651280021893767 -s 5 -d 4 -p rtProtoLS -e 20 -c 0 -i 40 -a 0 -x {5.1 4.1 -1 ------- null}
h -t 0.0651280021893767 -s 5 -d 4 -p rtProtoLS -e 20 -c 0 -i 40 -a 0 -x {5.1 4.1 -1 ------- null}
+ -t 0.0651280021893767 -s 5 -d 6 -p rtProtoLS -e 100 -c 0 -i 41 -a 0 -x {5.1 6.1 -1 ------- null}
- -t 0.0651280021893767 -s 5 -d 6 -p rtProtoLS -e 100 -c 0 -i 41 -a 0 -x {5.1 6.1 -1 ------- null}
h -t 0.0651280021893767 -s 5 -d 6 -p rtProtoLS -e 100 -c 0 -i 41 -a 0 -x {5.1 6.1 -1 ------- null}
r -t 0.0752346688560434 -s 1 -d 2 -p rtProtoLS -e 20 -c 0 -i 38 -a 0 -x {1.1 2.1 -1 ------- null}
r -t 0.0752346688560434 -s 5 -d 4 -p rtProtoLS -e 20 -c 0 -i 40 -a 0 -x {5.1 4.1 -1 ------- null}
r -t 0.07566133552271 -s 1 -d 0 -p rtProtoLS -e 100 -c 0 -i 39 -a 0 -x {1.1 0.2 -1 ------- null}
+ -t 0.07566133552271 -s 0 -d 1 -p rtProtoLS -e 20 -c 0 -i 42 -a 0 -x {0.2 1.1 -1 ------- null}
- -t 0.07566133552271 -s 0 -d 1 -p rtProtoLS -e 20 -c 0 -i 42 -a 0 -x {0.2 1.1 -1 ------- null}
h -t 0.07566133552271 -s 0 -d 1 -p rtProtoLS -e 20 -c 0 -i 42 -a 0 -x {0.2 1.1 -1 ------- null}
+ -t 0.07566133552271 -s 0 -d 6 -p rtProtoLS -e 100 -c 0 -i 43 -a 0 -x {0.2 6.1 -1 ------- null}
- -t 0.07566133552271 -s 0 -d 6 -p rtProtoLS -e 100 -c 0 -i 43 -a 0 -x {0.2 6.1 -1 ------- null}
h -t 0.07566133552271 -s 0 -d 6 -p rtProtoLS -e 100 -c 0 -i 43 -a 0 -x {0.2 6.1 -1 ------- null}
r -t 0.07566133552271 -s 5 -d 6 -p rtProtoLS -e 100 -c 0 -i 41 -a 0 -x {5.1 6.1 -1 ------- null}
+ -t 0.07566133552271 -s 6 -d 5 -p rtProtoLS -e 20 -c 0 -i 44 -a 0 -x {6.1 5.1 -1 ------- null}
- -t 0.07566133552271 -s 6 -d 5 -p rtProtoLS -e 20 -c 0 -i 44 -a 0 -x {6.1 5.1 -1 ------- null}
h -t 0.07566133552271 -s 6 -d 5 -p rtProtoLS -e 20 -c 0 -i 44 -a 0 -x {6.1 5.1 -1 ------- null}
+ -t 0.07566133552271 -s 6 -d 0 -p rtProtoLS -e 100 -c 0 -i 45 -a 0 -x {6.1 0.2 -1 ------- null}
- -t 0.07566133552271 -s 6 -d 0 -p rtProtoLS -e 100 -c 0 -i 45 -a 0 -x {6.1 0.2 -1 ------- null}
h -t 0.07566133552271 -s 6 -d 0 -p rtProtoLS -e 100 -c 0 -i 45 -a 0 -x {6.1 0.2 -1 ------- null}
r -t 0.0857680021893767 -s 0 -d 1 -p rtProtoLS -e 20 -c 0 -i 42 -a 0 -x {0.2 1.1 -1 ------- null}
r -t 0.0857680021893767 -s 6 -d 5 -p rtProtoLS -e 20 -c 0 -i 44 -a 0 -x {6.1 5.1 -1 ------- null}
r -t 0.0861946688560434 -s 0 -d 6 -p rtProtoLS -e 100 -c 0 -i 43 -a 0 -x {0.2 6.1 -1 ------- null}
+ -t 0.0861946688560434 -s 6 -d 0 -p rtProtoLS -e 20 -c 0 -i 46 -a 0 -x {6.1 0.2 -1 ------- null}
- -t 0.0861946688560434 -s 6 -d 0 -p rtProtoLS -e 20 -c 0 -i 46 -a 0 -x {6.1 0.2 -1 ------- null}
h -t 0.0861946688560434 -s 6 -d 0 -p rtProtoLS -e 20 -c 0 -i 46 -a 0 -x {6.1 0.2 -1 ------- null}
r -t 0.0861946688560434 -s 6 -d 0 -p rtProtoLS -e 100 -c 0 -i 45 -a 0 -x {6.1 0.2 -1 ------- null}
+ -t 0.0861946688560434 -s 0 -d 6 -p rtProtoLS -e 20 -c 0 -i 47 -a 0 -x {0.2 6.1 -1 ------- null}
- -t 0.0861946688560434 -s 0 -d 6 -p rtProtoLS -e 20 -c 0 -i 47 -a 0 -x {0.2 6.1 -1 ------- null}
h -t 0.0861946688560434 -s 0 -d 6 -p rtProtoLS -e 20 -c 0 -i 47 -a 0 -x {0.2 6.1 -1 ------- null}
r -t 0.09630133552271 -s 6 -d 0 -p rtProtoLS -e 20 -c 0 -i 46 -a 0 -x {6.1 0.2 -1 ------- null}
r -t 0.09630133552271 -s 0 -d 6 -p rtProtoLS -e 20 -c 0 -i 47 -a 0 -x {0.2 6.1 -1 ------- null}
+ -t 0.156480885882155 -s 6 -d 0 -p rtProtoLS -e 100 -c 0 -i 48 -a 0 -x {6.1 0.2 -1 ------- null}
- -t 0.156480885882155 -s 6 -d 0 -p rtProtoLS -e 100 -c 0 -i 48 -a 0 -x {6.1 0.2 -1 ------- null}
h -t 0.156480885882155 -s 6 -d 0 -p rtProtoLS -e 100 -c 0 -i 48 -a 0 -x {6.1 0.2 -1 ------- null}
+ -t 0.156480885882155 -s 6 -d 5 -p rtProtoLS -e 100 -c 0 -i 49 -a 0 -x {6.1 5.1 -1 ------- null}
- -t 0.156480885882155 -s 6 -d 5 -p rtProtoLS -e 100 -c 0 -i 49 -a 0 -x {6.1 5.1 -1 ------- null}
h -t 0.156480885882155 -s 6 -d 5 -p rtProtoLS -e 100 -c 0 -i 49 -a 0 -x {6.1 5.1 -1 ------- null}
r -t 0.167014219215488 -s 6 -d 0 -p rtProtoLS -e 100 -c 0 -i 48 -a 0 -x {6.1 0.2 -1 ------- null}
+ -t 0.167014219215488 -s 0 -d 6 -p rtProtoLS -e 20 -c 0 -i 50 -a 0 -x {0.2 6.1 -1 ------- null}
- -t 0.167014219215488 -s 0 -d 6 -p rtProtoLS -e 20 -c 0 -i 50 -a 0 -x {0.2 6.1 -1 ------- null}
h -t 0.167014219215488 -s 0 -d 6 -p rtProtoLS -e 20 -c 0 -i 50 -a 0 -x {0.2 6.1 -1 ------- null}
+ -t 0.167014219215488 -s 0 -d 1 -p rtProtoLS -e 100 -c 0 -i 51 -a 0 -x {0.2 1.1 -1 ------- null}
- -t 0.167014219215488 -s 0 -d 1 -p rtProtoLS -e 100 -c 0 -i 51 -a 0 -x {0.2 1.1 -1 ------- null}
h -t 0.167014219215488 -s 0 -d 1 -p rtProtoLS -e 100 -c 0 -i 51 -a 0 -x {0.2 1.1 -1 ------- null}
r -t 0.167014219215488 -s 6 -d 5 -p rtProtoLS -e 100 -c 0 -i 49 -a 0 -x {6.1 5.1 -1 ------- null}
+ -t 0.167014219215488 -s 5 -d 6 -p rtProtoLS -e 20 -c 0 -i 52 -a 0 -x {5.1 6.1 -1 ------- null}
- -t 0.167014219215488 -s 5 -d 6 -p rtProtoLS -e 20 -c 0 -i 52 -a 0 -x {5.1 6.1 -1 ------- null}
h -t 0.167014219215488 -s 5 -d 6 -p rtProtoLS -e 20 -c 0 -i 52 -a 0 -x {5.1 6.1 -1 ------- null}
+ -t 0.167014219215488 -s 5 -d 4 -p rtProtoLS -e 100 -c 0 -i 53 -a 0 -x {5.1 4.1 -1 ------- null}
- -t 0.167014219215488 -s 5 -d 4 -p rtProtoLS -e 100 -c 0 -i 53 -a 0 -x {5.1 4.1 -1 ------- null}
h -t 0.167014219215488 -s 5 -d 4 -p rtProtoLS -e 100 -c 0 -i 53 -a 0 -x {5.1 4.1 -1 ------- null}
r -t 0.177120885882155 -s 0 -d 6 -p rtProtoLS -e 20 -c 0 -i 50 -a 0 -x {0.2 6.1 -1 ------- null}
r -t 0.177120885882155 -s 5 -d 6 -p rtProtoLS -e 20 -c 0 -i 52 -a 0 -x {5.1 6.1 -1 ------- null}
r -t 0.177547552548821 -s 0 -d 1 -p rtProtoLS -e 100 -c 0 -i 51 -a 0 -x {0.2 1.1 -1 ------- null}
+ -t 0.177547552548821 -s 1 -d 0 -p rtProtoLS -e 20 -c 0 -i 54 -a 0 -x {1.1 0.2 -1 ------- null}
- -t 0.177547552548821 -s 1 -d 0 -p rtProtoLS -e 20 -c 0 -i 54 -a 0 -x {1.1 0.2 -1 ------- null}
h -t 0.177547552548821 -s 1 -d 0 -p rtProtoLS -e 20 -c 0 -i 54 -a 0 -x {1.1 0.2 -1 ------- null}
+ -t 0.177547552548821 -s 1 -d 2 -p rtProtoLS -e 100 -c 0 -i 55 -a 0 -x {1.1 2.1 -1 ------- null}
- -t 0.177547552548821 -s 1 -d 2 -p rtProtoLS -e 100 -c 0 -i 55 -a 0 -x {1.1 2.1 -1 ------- null}
h -t 0.177547552548821 -s 1 -d 2 -p rtProtoLS -e 100 -c 0 -i 55 -a 0 -x {1.1 2.1 -1 ------- null}
r -t 0.177547552548821 -s 5 -d 4 -p rtProtoLS -e 100 -c 0 -i 53 -a 0 -x {5.1 4.1 -1 ------- null}
+ -t 0.177547552548821 -s 4 -d 5 -p rtProtoLS -e 20 -c 0 -i 56 -a 0 -x {4.1 5.1 -1 ------- null}
- -t 0.177547552548821 -s 4 -d 5 -p rtProtoLS -e 20 -c 0 -i 56 -a 0 -x {4.1 5.1 -1 ------- null}
h -t 0.177547552548821 -s 4 -d 5 -p rtProtoLS -e 20 -c 0 -i 56 -a 0 -x {4.1 5.1 -1 ------- null}
+ -t 0.177547552548821 -s 4 -d 3 -p rtProtoLS -e 100 -c 0 -i 57 -a 0 -x {4.1 3.2 -1 ------- null}
- -t 0.177547552548821 -s 4 -d 3 -p rtProtoLS -e 100 -c 0 -i 57 -a 0 -x {4.1 3.2 -1 ------- null}
h -t 0.177547552548821 -s 4 -d 3 -p rtProtoLS -e 100 -c 0 -i 57 -a 0 -x {4.1 3.2 -1 ------- null}
r -t 0.187654219215488 -s 1 -d 0 -p rtProtoLS -e 20 -c 0 -i 54 -a 0 -x {1.1 0.2 -1 ------- null}
r -t 0.187654219215488 -s 4 -d 5 -p rtProtoLS -e 20 -c 0 -i 56 -a 0 -x {4.1 5.1 -1 ------- null}
r -t 0.188080885882155 -s 1 -d 2 -p rtProtoLS -e 100 -c 0 -i 55 -a 0 -x {1.1 2.1 -1 ------- null}
+ -t 0.188080885882155 -s 2 -d 1 -p rtProtoLS -e 20 -c 0 -i 58 -a 0 -x {2.1 1.1 -1 ------- null}
- -t 0.188080885882155 -s 2 -d 1 -p rtProtoLS -e 20 -c 0 -i 58 -a 0 -x {2.1 1.1 -1 ------- null}
h -t 0.188080885882155 -s 2 -d 1 -p rtProtoLS -e 20 -c 0 -i 58 -a 0 -x {2.1 1.1 -1 ------- null}
+ -t 0.188080885882155 -s 2 -d 3 -p rtProtoLS -e 100 -c 0 -i 59 -a 0 -x {2.1 3.2 -1 ------- null}
- -t 0.188080885882155 -s 2 -d 3 -p rtProtoLS -e 100 -c 0 -i 59 -a 0 -x {2.1 3.2 -1 ------- null}
h -t 0.188080885882155 -s 2 -d 3 -p rtProtoLS -e 100 -c 0 -i 59 -a 0 -x {2.1 3.2 -1 ------- null}
r -t 0.188080885882155 -s 4 -d 3 -p rtProtoLS -e 100 -c 0 -i 57 -a 0 -x {4.1 3.2 -1 ------- null}
+ -t 0.188080885882155 -s 3 -d 4 -p rtProtoLS -e 20 -c 0 -i 60 -a 0 -x {3.2 4.1 -1 ------- null}
- -t 0.188080885882155 -s 3 -d 4 -p rtProtoLS -e 20 -c 0 -i 60 -a 0 -x {3.2 4.1 -1 ------- null}
h -t 0.188080885882155 -s 3 -d 4 -p rtProtoLS -e 20 -c 0 -i 60 -a 0 -x {3.2 4.1 -1 ------- null}
+ -t 0.188080885882155 -s 3 -d 2 -p rtProtoLS -e 100 -c 0 -i 61 -a 0 -x {3.2 2.1 -1 ------- null}
- -t 0.188080885882155 -s 3 -d 2 -p rtProtoLS -e 100 -c 0 -i 61 -a 0 -x {3.2 2.1 -1 ------- null}
h -t 0.188080885882155 -s 3 -d 2 -p rtProtoLS -e 100 -c 0 -i 61 -a 0 -x {3.2 2.1 -1 ------- null}
r -t 0.198187552548821 -s 2 -d 1 -p rtProtoLS -e 20 -c 0 -i 58 -a 0 -x {2.1 1.1 -1 ------- null}
r -t 0.198187552548821 -s 3 -d 4 -p rtProtoLS -e 20 -c 0 -i 60 -a 0 -x {3.2 4.1 -1 ------- null}
r -t 0.198614219215488 -s 2 -d 3 -p rtProtoLS -e 100 -c 0 -i 59 -a 0 -x {2.1 3.2 -1 ------- null}
+ -t 0.198614219215488 -s 3 -d 2 -p rtProtoLS -e 20 -c 0 -i 62 -a 0 -x {3.2 2.1 -1 ------- null}
- -t 0.198614219215488 -s 3 -d 2 -p rtProtoLS -e 20 -c 0 -i 62 -a 0 -x {3.2 2.1 -1 ------- null}
h -t 0.198614219215488 -s 3 -d 2 -p rtProtoLS -e 20 -c 0 -i 62 -a 0 -x {3.2 2.1 -1 ------- null}
r -t 0.198614219215488 -s 3 -d 2 -p rtProtoLS -e 100 -c 0 -i 61 -a 0 -x {3.2 2.1 -1 ------- null}
+ -t 0.198614219215488 -s 2 -d 3 -p rtProtoLS -e 20 -c 0 -i 63 -a 0 -x {2.1 3.2 -1 ------- null}
- -t 0.198614219215488 -s 2 -d 3 -p rtProtoLS -e 20 -c 0 -i 63 -a 0 -x {2.1 3.2 -1 ------- null}
h -t 0.198614219215488 -s 2 -d 3 -p rtProtoLS -e 20 -c 0 -i 63 -a 0 -x {2.1 3.2 -1 ------- null}
r -t 0.208720885882155 -s 3 -d 2 -p rtProtoLS -e 20 -c 0 -i 62 -a 0 -x {3.2 2.1 -1 ------- null}
r -t 0.208720885882155 -s 2 -d 3 -p rtProtoLS -e 20 -c 0 -i 63 -a 0 -x {2.1 3.2 -1 ------- null}
+ -t 0.22058669092161 -s 4 -d 3 -p rtProtoLS -e 100 -c 0 -i 64 -a 0 -x {4.1 3.2 -1 ------- null}
- -t 0.22058669092161 -s 4 -d 3 -p rtProtoLS -e 100 -c 0 -i 64 -a 0 -x {4.1 3.2 -1 ------- null}
h -t 0.22058669092161 -s 4 -d 3 -p rtProtoLS -e 100 -c 0 -i 64 -a 0 -x {4.1 3.2 -1 ------- null}
+ -t 0.22058669092161 -s 4 -d 5 -p rtProtoLS -e 100 -c 0 -i 65 -a 0 -x {4.1 5.1 -1 ------- null}
- -t 0.22058669092161 -s 4 -d 5 -p rtProtoLS -e 100 -c 0 -i 65 -a 0 -x {4.1 5.1 -1 ------- null}
h -t 0.22058669092161 -s 4 -d 5 -p rtProtoLS -e 100 -c 0 -i 65 -a 0 -x {4.1 5.1 -1 ------- null}
r -t 0.231120024254943 -s 4 -d 3 -p rtProtoLS -e 100 -c 0 -i 64 -a 0 -x {4.1 3.2 -1 ------- null}
+ -t 0.231120024254943 -s 3 -d 4 -p rtProtoLS -e 20 -c 0 -i 66 -a 0 -x {3.2 4.1 -1 ------- null}
- -t 0.231120024254943 -s 3 -d 4 -p rtProtoLS -e 20 -c 0 -i 66 -a 0 -x {3.2 4.1 -1 ------- null}
h -t 0.231120024254943 -s 3 -d 4 -p rtProtoLS -e 20 -c 0 -i 66 -a 0 -x {3.2 4.1 -1 ------- null}
+ -t 0.231120024254943 -s 3 -d 2 -p rtProtoLS -e 100 -c 0 -i 67 -a 0 -x {3.2 2.1 -1 ------- null}
- -t 0.231120024254943 -s 3 -d 2 -p rtProtoLS -e 100 -c 0 -i 67 -a 0 -x {3.2 2.1 -1 ------- null}
h -t 0.231120024254943 -s 3 -d 2 -p rtProtoLS -e 100 -c 0 -i 67 -a 0 -x {3.2 2.1 -1 ------- null}
r -t 0.231120024254943 -s 4 -d 5 -p rtProtoLS -e 100 -c 0 -i 65 -a 0 -x {4.1 5.1 -1 ------- null}
+ -t 0.231120024254943 -s 5 -d 4 -p rtProtoLS -e 20 -c 0 -i 68 -a 0 -x {5.1 4.1 -1 ------- null}
- -t 0.231120024254943 -s 5 -d 4 -p rtProtoLS -e 20 -c 0 -i 68 -a 0 -x {5.1 4.1 -1 ------- null}
h -t 0.231120024254943 -s 5 -d 4 -p rtProtoLS -e 20 -c 0 -i 68 -a 0 -x {5.1 4.1 -1 ------- null}
+ -t 0.231120024254943 -s 5 -d 6 -p rtProtoLS -e 100 -c 0 -i 69 -a 0 -x {5.1 6.1 -1 ------- null}
- -t 0.231120024254943 -s 5 -d 6 -p rtProtoLS -e 100 -c 0 -i 69 -a 0 -x {5.1 6.1 -1 ------- null}
h -t 0.231120024254943 -s 5 -d 6 -p rtProtoLS -e 100 -c 0 -i 69 -a 0 -x {5.1 6.1 -1 ------- null}
r -t 0.24122669092161 -s 3 -d 4 -p rtProtoLS -e 20 -c 0 -i 66 -a 0 -x {3.2 4.1 -1 ------- null}
r -t 0.24122669092161 -s 5 -d 4 -p rtProtoLS -e 20 -c 0 -i 68 -a 0 -x {5.1 4.1 -1 ------- null}
r -t 0.241653357588276 -s 3 -d 2 -p rtProtoLS -e 100 -c 0 -i 67 -a 0 -x {3.2 2.1 -1 ------- null}
+ -t 0.241653357588276 -s 2 -d 3 -p rtProtoLS -e 20 -c 0 -i 70 -a 0 -x {2.1 3.2 -1 ------- null}
- -t 0.241653357588276 -s 2 -d 3 -p rtProtoLS -e 20 -c 0 -i 70 -a 0 -x {2.1 3.2 -1 ------- null}
h -t 0.241653357588276 -s 2 -d 3 -p rtProtoLS -e 20 -c 0 -i 70 -a 0 -x {2.1 3.2 -1 ------- null}
+ -t 0.241653357588276 -s 2 -d 1 -p rtProtoLS -e 100 -c 0 -i 71 -a 0 -x {2.1 1.1 -1 ------- null}
- -t 0.241653357588276 -s 2 -d 1 -p rtProtoLS -e 100 -c 0 -i 71 -a 0 -x {2.1 1.1 -1 ------- null}
h -t 0.241653357588276 -s 2 -d 1 -p rtProtoLS -e 100 -c 0 -i 71 -a 0 -x {2.1 1.1 -1 ------- null}
r -t 0.241653357588276 -s 5 -d 6 -p rtProtoLS -e 100 -c 0 -i 69 -a 0 -x {5.1 6.1 -1 ------- null}
+ -t 0.241653357588276 -s 6 -d 5 -p rtProtoLS -e 20 -c 0 -i 72 -a 0 -x {6.1 5.1 -1 ------- null}
- -t 0.241653357588276 -s 6 -d 5 -p rtProtoLS -e 20 -c 0 -i 72 -a 0 -x {6.1 5.1 -1 ------- null}
h -t 0.241653357588276 -s 6 -d 5 -p rtProtoLS -e 20 -c 0 -i 72 -a 0 -x {6.1 5.1 -1 ------- null}
+ -t 0.241653357588276 -s 6 -d 0 -p rtProtoLS -e 100 -c 0 -i 73 -a 0 -x {6.1 0.2 -1 ------- null}
- -t 0.241653357588276 -s 6 -d 0 -p rtProtoLS -e 100 -c 0 -i 73 -a 0 -x {6.1 0.2 -1 ------- null}
h -t 0.241653357588276 -s 6 -d 0 -p rtProtoLS -e 100 -c 0 -i 73 -a 0 -x {6.1 0.2 -1 ------- null}
r -t 0.251760024254943 -s 2 -d 3 -p rtProtoLS -e 20 -c 0 -i 70 -a 0 -x {2.1 3.2 -1 ------- null}
r -t 0.251760024254943 -s 6 -d 5 -p rtProtoLS -e 20 -c 0 -i 72 -a 0 -x {6.1 5.1 -1 ------- null}