V -t * -v 1.0a5 -a 0
A -t * -n 1 -p 0 -o 0x7fffffff -c 30 -a 1
A -t * -h 1 -m 1073741823 -s 0
n -t * -a 8 -s 8 -S UP -v circle -c black -i black
n -t * -a 4 -s 4 -S UP -v circle -c black -i black
n -t * -a 0 -s 0 -S UP -v circle -c black -i black
n -t * -a 9 -s 9 -S UP -v circle -c black -i black
n -t * -a 5 -s 5 -S UP -v circle -c black -i black
n -t * -a 1 -s 1 -S UP -v circle -c black -i black
n -t * -a 6 -s 6 -S UP -v circle -c black -i black
n -t * -a 2 -s 2 -S UP -v circle -c black -i black
n -t * -a 7 -s 7 -S UP -v circle -c black -i black
n -t * -a 3 -s 3 -S UP -v circle -c black -i black
l -t * -s 0 -d 1 -S UP -r 1000000 -D 0.01 -c black -o right-up
l -t * -s 1 -d 2 -S UP -r 1000000 -D 0.01 -c black -o right
l -t * -s 0 -d 3 -S UP -r 1500000 -D 0.01 -c black -o right-down
l -t * -s 2 -d 7 -S UP -r 2000000 -D 0.01 -c black -o right-down
l -t * -s 7 -d 8 -S UP -r 2000000 -D 0.01 -c black -o right-up
l -t * -s 5 -d 6 -S UP -r 1000000 -D 0.01 -c black -o right
l -t * -s 6 -d 4 -S UP -r 1000000 -D 0.01 -c black -o left-up
l -t * -s 3 -d 5 -S UP -r 1000000 -D 0.01 -c black -o right-down
l -t * -s 4 -d 7 -S UP -r 1000000 -D 0.01 -c black -o right-up
l -t * -s 8 -d 9 -S UP -r 2000000 -D 0.01 -c black -o right-down
v -t 0.2 -e sim_annotation 0.2 1 Starting HTTP from 0 to 7
+ -t 0.327628848888186 -s 0 -d 1 -p exp -e 40 -c 0 -i 0 -a 0 -x {0.1 7.0 0 ------- null}
- -t 0.327628848888186 -s 0 -d 1 -p exp -e 40 -c 0 -i 0 -a 0 -x {0.1 7.0 0 ------- null}
h -t 0.327628848888186 -s 0 -d 1 -p exp -e 40 -c 0 -i 0 -a 0 -x {0.1 7.0 -1 ------- null}
r -t 0.337948848888186 -s 0 -d 1 -p exp -e 40 -c 0 -i 0 -a 0 -x {0.1 7.0 0 ------- null}
+ -t 0.337948848888186 -s 1 -d 2 -p exp -e 40 -c 0 -i 0 -a 0 -x {0.1 7.0 0 ------- null}
- -t 0.337948848888186 -s 1 -d 2 -p exp -e 40 -c 0 -i 0 -a 0 -x {0.1 7.0 0 ------- null}
h -t 0.337948848888186 -s 1 -d 2 -p exp -e 40 -c 0 -i 0 -a 0 -x {0.1 7.0 -1 ------- null}
r -t 0.348268848888186 -s 1 -d 2 -p exp -e 40 -c 0 -i 0 -a 0 -x {0.1 7.0 0 ------- null}
+ -t 0.348268848888186 -s 2 -d 7 -p exp -e 40 -c 0 -i 0 -a 0 -x {0.1 7.0 0 ------- null}
- -t 0.348268848888186 -s 2 -d 7 -p exp -e 40 -c 0 -i 0 -a 0 -x {0.1 7.0 0 ------- null}
h -t 0.348268848888186 -s 2 -d 7 -p exp -e 40 -c 0 -i 0 -a 0 -x {0.1 7.0 -1 ------- null}
r -t 0.358428848888186 -s 2 -d 7 -p exp -e 40 -c 0 -i 0 -a 0 -x {0.1 7.0 0 ------- null}
+ -t 0.358428848888186 -s 7 -d 2 -p ack -e 40 -c 0 -i 1 -a 0 -x {7.0 0.1 0 ------- null}
- -t 0.358428848888186 -s 7 -d 2 -p ack -e 40 -c 0 -i 1 -a 0 -x {7.0 0.1 0 ------- null}
h -t 0.358428848888186 -s 7 -d 2 -p ack -e 40 -c 0 -i 1 -a 0 -x {7.0 0.1 -1 ------- null}
r -t 0.368588848888186 -s 7 -d 2 -p ack -e 40 -c 0 -i 1 -a 0 -x {7.0 0.1 0 ------- null}
+ -t 0.368588848888186 -s 2 -d 1 -p ack -e 40 -c 0 -i 1 -a 0 -x {7.0 0.1 0 ------- null}
- -t 0.368588848888186 -s 2 -d 1 -p ack -e 40 -c 0 -i 1 -a 0 -x {7.0 0.1 0 ------- null}
h -t 0.368588848888186 -s 2 -d 1 -p ack -e 40 -c 0 -i 1 -a 0 -x {7.0 0.1 -1 ------- null}
r -t 0.378908848888186 -s 2 -d 1 -p ack -e 40 -c 0 -i 1 -a 0 -x {7.0 0.1 0 ------- null}
+ -t 0.378908848888186 -s 1 -d 0 -p ack -e 40 -c 0 -i 1 -a 0 -x {7.0 0.1 0 ------- null}
- -t 0.378908848888186 -s 1 -d 0 -p ack -e 40 -c 0 -i 1 -a 0 -x {7.0 0.1 0 ------- null}
h -t 0.378908848888186 -s 1 -d 0 -p ack -e 40 -c 0 -i 1 -a 0 -x {7.0 0.1 -1 ------- null}
r -t 0.389228848888186 -s 1 -d 0 -p ack -e 40 -c 0 -i 1 -a 0 -x {7.0 0.1 0 ------- null}
+ -t 0.389228848888186 -s 0 -d 1 -p exp -e 1040 -c 0 -i 2 -a 0 -x {0.1 7.0 0 ------- null}
- -t 0.389228848888186 -s 0 -d 1 -p exp -e 1040 -c 0 -i 2 -a 0 -x {0.1 7.0 0 ------- null}
h -t 0.389228848888186 -s 0 -d 1 -p exp -e 1040 -c 0 -i 2 -a 0 -x {0.1 7.0 -1 ------- null}
+ -t 0.389228848888186 -s 0 -d 1 -p exp -e 1040 -c 0 -i 3 -a 0 -x {0.1 7.0 0 ------- null}
- -t 0.397548848888186 -s 0 -d 1 -p exp -e 1040 -c 0 -i 3 -a 0 -x {0.1 7.0 0 ------- null}
h -t 0.397548848888186 -s 0 -d 1 -p exp -e 1040 -c 0 -i 3 -a 0 -x {0.1 7.0 -1 ------- null}
r -t 0.407548848888186 -s 0 -d 1 -p exp -e 1040 -c 0 -i 2 -a 0 -x {0.1 7.0 0 ------- null}
+ -t 0.407548848888186 -s 1 -d 2 -p exp -e 1040 -c 0 -i 2 -a 0 -x {0.1 7.0 0 ------- null}
- -t 0.407548848888186 -s 1 -d 2 -p exp -e 1040 -c 0 -i 2 -a 0 -x {0.1 7.0 0 ------- null}
h -t 0.407548848888186 -s 1 -d 2 -p exp -e 1040 -c 0 -i 2 -a 0 -x {0.1 7.0 -1 ------- null}
r -t 0.415868848888186 -s 0 -d 1 -p exp -e 1040 -c 0 -i 3 -a 0 -x {0.1 7.0 0 ------- null}
+ -t 0.415868848888186 -s 1 -d 2 -p exp -e 1040 -c 0 -i 3 -a 0 -x {0.1 7.0 0 ------- null}
- -t 0.415868848888186 -s 1 -d 2 -p exp -e 1040 -c 0 -i 3 -a 0 -x {0.1 7.0 0 ------- null}
h -t 0.415868848888186 -s 1 -d 2 -p exp -e 1040 -c 0 -i 3 -a 0 -x {0.1 7.0 -1 ------- null}
r -t 0.425868848888186 -s 1 -d 2 -p exp -e 1040 -c 0 -i 2 -a 0 -x {0.1 7.0 0 ------- null}
+ -t 0.425868848888186 -s 2 -d 7 -p exp -e 1040 -c 0 -i 2 -a 0 -x {0.1 7.0 0 ------- null}
- -t 0.425868848888186 -s 2 -d 7 -p exp -e 1040 -c 0 -i 2 -a 0 -x {0.1 7.0 0 ------- null}
h -t 0.425868848888186 -s 2 -d 7 -p exp -e 1040 -c 0 -i 2 -a 0 -x {0.1 7.0 -1 ------- null}
r -t 0.434188848888186 -s 1 -d 2 -p exp -e 1040 -c 0 -i 3 -a 0 -x {0.1 7.0 0 ------- null}
+ -t 0.434188848888186 -s 2 -d 7 -p exp -e 1040 -c 0 -i 3 -a 0 -x {0.1 7.0 0 ------- null}
- -t 0.434188848888186 -s 2 -d 7 -p exp -e 1040 -c 0 -i 3 -a 0 -x {0.1 7.0 0 ------- null}
h -t 0.434188848888186 -s 2 -d 7 -p exp -e 1040 -c 0 -i 3 -a 0 -x {0.1 7.0 -1 ------- null}
r -t 0.440028848888186 -s 2 -d 7 -p exp -e 1040 -c 0 -i 2 -a 0 -x {0.1 7.0 0 ------- null}
+ -t 0.440028848888186 -s 7 -d 2 -p ack -e 40 -c 0 -i 4 -a 0 -x {7.0 0.1 1 ------- null}
- -t 0.440028848888186 -s 7 -d 2 -p ack -e 40 -c 0 -i 4 -a 0 -x {7.0 0.1 1 ------- null}
h -t 0.440028848888186 -s 7 -d 2 -p ack -e 40 -c 0 -i 4 -a 0 -x {7.0 0.1 -1 ------- null}
r -t 0.448348848888186 -s 2 -d 7 -p exp -e 1040 -c 0 -i 3 -a 0 -x {0.1 7.0 0 ------- null}
+ -t 0.448348848888186 -s 7 -d 2 -p ack -e 40 -c 0 -i 5 -a 0 -x {7.0 0.1 2 ------- null}
- -t 0.448348848888186 -s 7 -d 2 -p ack -e 40 -c 0 -i 5 -a 0 -x {7.0 0.1 2 ------- null}
h -t 0.448348848888186 -s 7 -d 2 -p ack -e 40 -c 0 -i 5 -a 0 -x {7.0 0.1 -1 ------- null}
r -t 0.450188848888186 -s 7 -d 2 -p ack -e 40 -c 0 -i 4 -a 0 -x {7.0 0.1 1 ------- null}
+ -t 0.450188848888186 -s 2 -d 1 -p ack -e 40 -c 0 -i 4 -a 0 -x {7.0 0.1 1 ------- null}
- -t 0.450188848888186 -s 2 -d 1 -p ack -e 40 -c 0 -i 4 -a 0 -x {7.0 0.1 1 ------- null}
h -t 0.450188848888186 -s 2 -d 1 -p ack -e 40 -c 0 -i 4 -a 0 -x {7.0 0.1 -1 ------- null}
r -t 0.458508848888186 -s 7 -d 2 -p ack -e 40 -c 0 -i 5 -a 0 -x {7.0 0.1 2 ------- null}
+ -t 0.458508848888186 -s 2 -d 1 -p ack -e 40 -c 0 -i 5 -a 0 -x {7.0 0.1 2 ------- null}
- -t 0.458508848888186 -s 2 -d 1 -p ack -e 40 -c 0 -i 5 -a 0 -x {7.0 0.1 2 ------- null}
h -t 0.458508848888186 -s 2 -d 1 -p ack -e 40 -c 0 -i 5 -a 0 -x {7.0 0.1 -1 ------- null}
r -t 0.460508848888186 -s 2 -d 1 -p ack -e 40 -c 0 -i 4 -a 0 -x {7.0 0.1 1 ------- null}
+ -t 0.460508848888186 -s 1 -d 0 -p ack -e 40 -c 0 -i 4 -a 0 -x {7.0 0.1 1 ------- null}
- -t 0.460508848888186 -s 1 -d 0 -p ack -e 40 -c 0 -i 4 -a 0 -x {7.0 0.1 1 ------- null}
h -t 0.460508848888186 -s 1 -d 0 -p ack -e 40 -c 0 -i 4 -a 0 -x {7.0 0.1 -1 ------- null}
r -t 0.468828848888186 -s 2 -d 1 -p ack -e 40 -c 0 -i 5 -a 0 -x {7.0 0.1 2 ------- null}
+ -t 0.468828848888186 -s 1 -d 0 -p ack -e 40 -c 0 -i 5 -a 0 -x {7.0 0.1 2 ------- null}
- -t 0.468828848888186 -s 1 -d 0 -p ack -e 40 -c 0 -i 5 -a 0 -x {7.0 0.1 2 ------- null}
h -t 0.468828848888186 -s 1 -d 0 -p ack -e 40 -c 0 -i 5 -a 0 -x {7.0 0.1 -1 ------- null}
r -t 0.470828848888186 -s 1 -d 0 -p ack -e 40 -c 0 -i 4 -a 0 -x {7.0 0.1 1 ------- null}
+ -t 0.470828848888186 -s 0 -d 1 -p exp -e 1040 -c 0 -i 6 -a 0 -x {0.1 7.0 0 ------- null}
- -t 0.470828848888186 -s 0 -d 1 -p exp -e 1040 -c 0 -i 6 -a 0 -x {0.1 7.0 0 ------- null}
h -t 0.470828848888186 -s 0 -d 1 -p exp -e 1040 -c 0 -i 6 -a 0 -x {0.1 7.0 -1 ------- null}
+ -t 0.470828848888186 -s 0 -d 1 -p exp -e 1040 -c 0 -i 7 -a 0 -x {0.1 7.0 0 ------- null}
r -t 0.479148848888186 -s 1 -d 0 -p ack -e 40 -c 0 -i 5 -a 0 -x {7.0 0.1 2 ------- null}
+ -t 0.479148848888186 -s 0 -d 1 -p exp -e 1040 -c 0 -i 8 -a 0 -x {0.1 7.0 0 ------- null}
+ -t 0.479148848888186 -s 0 -d 1 -p exp -e 1040 -c 0 -i 9 -a 0 -x {0.1 7.0 0 ------- null}
- -t 0.479148848888186 -s 0 -d 1 -p exp -e 1040 -c 0 -i 7 -a 0 -x {0.1 7.0 0 ------- null}
h -t 0.479148848888186 -s 0 -d 1 -p exp -e 1040 -c 0 -i 7 -a 0 -x {0.1 7.0 -1 ------- null}
- -t 0.487468848888186 -s 0 -d 1 -p exp -e 1040 -c 0 -i 8 -a 0 -x {0.1 7.0 0 ------- null}
h -t 0.487468848888186 -s 0 -d 1 -p exp -e 1040 -c 0 -i 8 -a 0 -x {0.1 7.0 -1 ------- null}
r -t 0.489148848888186 -s 0 -d 1 -p exp -e 1040 -c 0 -i 6 -a 0 -x {0.1 7.0 0 ------- null}
+ -t 0.489148848888186 -s 1 -d 2 -p exp -e 1040 -c 0 -i 6 -a 0 -x {0.1 7.0 0 ------- null}
- -t 0.489148848888186 -s 1 -d 2 -p exp -e 1040 -c 0 -i 6 -a 0 -x {0.1 7.0 0 ------- null}
h -t 0.489148848888186 -s 1 -d 2 -p exp -e 1040 -c 0 -i 6 -a 0 -x {0.1 7.0 -1 ------- null}
- -t 0.495788848888186 -s 0 -d 1 -p exp -e 1040 -c 0 -i 9 -a 0 -x {0.1 7.0 0 ------- null}
h -t 0.495788848888186 -s 0 -d 1 -p exp -e 1040 -c 0 -i 9 -a 0 -x {0.1 7.0 -1 ------- null}
r -t 0.497468848888186 -s 0 -d 1 -p exp -e 1040 -c 0 -i 7 -a 0 -x {0.1 7.0 0 ------- null}
+ -t 0.497468848888186 -s 1 -d 2 -p exp -e 1040 -c 0 -i 7 -a 0 -x {0.1 7.0 0 ------- null}
- -t 0.497468848888186 -s 1 -d 2 -p exp -e 1040 -c 0 -i 7 -a 0 -x {0.1 7.0 0 ------- null}
h -t 0.497468848888186 -s 1 -d 2 -p exp -e 1040 -c 0 -i 7 -a 0 -x {0.1 7.0 -1 ------- null}
r -t 0.505788848888186 -s 0 -d 1 -p exp -e 1040 -c 0 -i 8 -a 0 -x {0.1 7.0 0 ------- null}
+ -t 0.505788848888186 -s 1 -d 2 -p exp -e 1040 -c 0 -i 8 -a 0 -x {0.1 7.0 0 ------- null}
- -t 0.505788848888187 -s 1 -d 2 -p exp -e 1040 -c 0 -i 8 -a 0 -x {0.1 7.0 0 ------- null}
h -t 0.505788848888187 -s 1 -d 2 -p exp -e 1040 -c 0 -i 8 -a 0 -x {0.1 7.0 -1 ------- null}
r -t 0.507468848888186 -s 1 -d 2 -p exp -e 1040 -c 0 -i 6 -a 0 -x {0.1 7.0 0 ------- null}
+ -t 0.507468848888186 -s 2 -d 7 -p exp -e 1040 -c 0 -i 6 -a 0 -x {0.1 7.0 0 ------- null}
- -t 0.507468848888186 -s 2 -d 7 -p exp -e 1040 -c 0 -i 6 -a 0 -x {0.1 7.0 0 ------- null}
h -t 0.507468848888186 -s 2 -d 7 -p exp -e 1040 -c 0 -i 6 -a 0 -x {0.1 7.0 -1 ------- null}
r -t 0.514108848888186 -s 0 -d 1 -p exp -e 1040 -c 0 -i 9 -a 0 -x {0.1 7.0 0 ------- null}
+ -t 0.514108848888186 -s 1 -d 2 -p exp -e 1040 -c 0 -i 9 -a 0 -x {0.1 7.0 0 ------- null}
- -t 0.514108848888187 -s 1 -d 2 -p exp -e 1040 -c 0 -i 9 -a 0 -x {0.1 7.0 0 ------- null}
h -t 0.514108848888187 -s 1 -d 2 -p exp -e 1040 -c 0 -i 9 -a 0 -x {0.1 7.0 -1 ------- null}
r -t 0.515788848888186 -s 1 -d 2 -p exp -e 1040 -c 0 -i 7 -a 0 -x {0.1 7.0 0 ------- null}
+ -t 0.515788848888186 -s 2 -d 7 -p exp -e 1040 -c 0 -i 7 -a 0 -x {0.1 7.0 0 ------- null}
- -t 0.515788848888186 -s 2 -d 7 -p exp -e 1040 -c 0 -i 7 -a 0 -x {0.1 7.0 0 ------- null}
h -t 0.515788848888186 -s 2 -d 7 -p exp -e 1040 -c 0 -i 7 -a 0 -x {0.1 7.0 -1 ------- null}
r -t 0.521628848888186 -s 2 -d 7 -p exp -e 1040 -c 0 -i 6 -a 0 -x {0.1 7.0 0 ------- null}
+ -t 0.521628848888186 -s 7 -d 2 -p ack -e 40 -c 0 -i 10 -a 0 -x {7.0 0.1 3 ------- null}
- -t 0.521628848888186 -s 7 -d 2 -p ack -e 40 -c 0 -i 10 -a 0 -x {7.0 0.1 3 ------- null}
h -t 0.521628848888186 -s 7 -d 2 -p ack -e 40 -c 0 -i 10 -a 0 -x {7.0 0.1 -1 ------- null}
r -t 0.524108848888187 -s 1 -d 2 -p exp -e 1040 -c 0 -i 8 -a 0 -x {0.1 7.0 0 ------- null}
+ -t 0.524108848888187 -s 2 -d 7 -p exp -e 1040 -c 0 -i 8 -a 0 -x {0.1 7.0 0 ------- null}
- -t 0.524108848888187 -s 2 -d 7 -p exp -e 1040 -c 0 -i 8 -a 0 -x {0.1 7.0 0 ------- null}
h -t 0.524108848888187 -s 2 -d 7 -p exp -e 1040 -c 0 -i 8 -a 0 -x {0.1 7.0 -1 ------- null}
r -t 0.529948848888186 -s 2 -d 7 -p exp -e 1040 -c 0 -i 7 -a 0 -x {0.1 7.0 0 ------- null}
+ -t 0.529948848888186 -s 7 -d 2 -p ack -e 40 -c 0 -i 11 -a 0 -x {7.0 0.1 4 ------- null}
- -t 0.529948848888186 -s 7 -d 2 -p ack -e 40 -c 0 -i 11 -a 0 -x {7.0 0.1 4 ------- null}
h -t 0.529948848888186 -s 7 -d 2 -p ack -e 40 -c 0 -i 11 -a 0 -x {7.0 0.1 -1 ------- null}
r -t 0.531788848888186 -s 7 -d 2 -p ack -e 40 -c 0 -i 10 -a 0 -x {7.0 0.1 3 ------- null}
+ -t 0.531788848888186 -s 2 -d 1 -p ack -e 40 -c 0 -i 10 -a 0 -x {7.0 0.1 3 ------- null}
- -t 0.531788848888186 -s 2 -d 1 -p ack -e 40 -c 0 -i 10 -a 0 -x {7.0 0.1 3 ------- null}
h -t 0.531788848888186 -s 2 -d 1 -p ack -e 40 -c 0 -i 10 -a 0 -x {7.0 0.1 -1 ------- null}
r -t 0.532428848888187 -s 1 -d 2 -p exp -e 1040 -c 0 -i 9 -a 0 -x {0.1 7.0 0 ------- null}
+ -t 0.532428848888187 -s 2 -d 7 -p exp -e 1040 -c 0 -i 9 -a 0 -x {0.1 7.0 0 ------- null}
- -t 0.532428848888187 -s 2 -d 7 -p exp -e 1040 -c 0 -i 9 -a 0 -x {0.1 7.0 0 ------- null}
h -t 0.532428848888187 -s 2 -d 7 -p exp -e 1040 -c 0 -i 9 -a 0 -x {0.1 7.0 -1 ------- null}
r -t 0.538268848888186 -s 2 -d 7 -p exp -e 1040 -c 0 -i 8 -a 0 -x {0.1 7.0 0 ------- null}
+ -t 0.538268848888186 -s 7 -d 2 -p ack -e 40 -c 0 -i 12 -a 0 -x {7.0 0.1 5 ------- null}
- -t 0.538268848888186 -s 7 -d 2 -p ack -e 40 -c 0 -i 12 -a 0 -x {7.0 0.1 5 ------- null}
h -t 0.538268848888186 -s 7 -d 2 -p ack -e 40 -c 0 -i 12 -a 0 -x {7.0 0.1 -1 ------- null}
r -t 0.540108848888186 -s 7 -d 2 -p ack -e 40 -c 0 -i 11 -a 0 -x {7.0 0.1 4 ------- null}
+ -t 0.540108848888186 -s 2 -d 1 -p ack -e 40 -c 0 -i 11 -a 0 -x {7.0 0.1 4 ------- null}
- -t 0.540108848888186 -s 2 -d 1 -p ack -e 40 -c 0 -i 11 -a 0 -x {7.0 0.1 4 ------- null}
h -t 0.540108848888186 -s 2 -d 1 -p ack -e 40 -c 0 -i 11 -a 0 -x {7.0 0.1 -1 ------- null}
r -t 0.542108848888186 -s 2 -d 1 -p ack -e 40 -c 0 -i 10 -a 0 -x {7.0 0.1 3 ------- null}
+ -t 0.542108848888186 -s 1 -d 0 -p ack -e 40 -c 0 -i 10 -a 0 -x {7.0 0.1 3 ------- null}
- -t 0.542108848888186 -s 1 -d 0 -p ack -e 40 -c 0 -i 10 -a 0 -x {7.0 0.1 3 ------- null}
h -t 0.542108848888186 -s 1 -d 0 -p ack -e 40 -c 0 -i 10 -a 0 -x {7.0 0.1 -1 ------- null}
r -t 0.546588848888186 -s 2 -d 7 -p exp -e 1040 -c 0 -i 9 -a 0 -x {0.1 7.0 0 ------- null}
+ -t 0.546588848888186 -s 7 -d 2 -p ack -e 40 -c 0 -i 13 -a 0 -x {7.0 0.1 6 ------- null}
- -t 0.546588848888186 -s 7 -d 2 -p ack -e 40 -c 0 -i 13 -a 0 -x {7.0 0.1 6 ------- null}
h -t 0.546588848888186 -s 7 -d 2 -p ack -e 40 -c 0 -i 13 -a 0 -x {7.0 0.1 -1 ------- null}
r -t 0.548428848888186 -s 7 -d 2 -p ack -e 40 -c 0 -i 12 -a 0 -x {7.0 0.1 5 ------- null}
+ -t 0.548428848888186 -s 2 -d 1 -p ack -e 40 -c 0 -i 12 -a 0 -x {7.0 0.1 5 ------- null}
- -t 0.548428848888186 -s 2 -d 1 -p ack -e 40 -c 0 -i 12 -a 0 -x {7.0 0.1 5 ------- null}
h -t 0.548428848888186 -s 2 -d 1 -p ack -e 40 -c 0 -i 12 -a 0 -x {7.0 0.1 -1 ------- null}
r -t 0.550428848888186 -s 2 -d 1 -p ack -e 40 -c 0 -i 11 -a 0 -x {7.0 0.1 4 ------- null}
+ -t 0.550428848888186 -s 1 -d 0 -p ack -e 40 -c 0 -i 11 -a 0 -x {7.0 0.1 4 ------- null}
- -t 0.550428848888186 -s 1 -d 0 -p ack -e 40 -c 0 -i 11 -a 0 -x {7.0 0.1 4 ------- null}
h -t 0.550428848888186 -s 1 -d 0 -p ack -e 40 -c 0 -i 11 -a 0 -x {7.0 0.1 -1 ------- null}
r -t 0.552428848888186 -s 1 -d 0 -p ack -e 40 -c 0 -i 10 -a 0 -x {7.0 0.1 3 ------- null}
+ -t 0.552428848888186 -s 0 -d 1 -p exp -e 1040 -c 0 -i 14 -a 0 -x {0.1 7.0 0 ------- null}
- -t 0.552428848888186 -s 0 -d 1 -p exp -e 1040 -c 0 -i 14 -a 0 -x {0.1 7.0 0 ------- null}
h -t 0.552428848888186 -s 0 -d 1 -p exp -e 1040 -c 0 -i 14 -a 0 -x {0.1 7.0 -1 ------- null}
+ -t 0.552428848888186 -s 0 -d 1 -p exp -e 1040 -c 0 -i 15 -a 0 -x {0.1 7.0 0 ------- null}
r -t 0.556748848888186 -s 7 -d 2 -p ack -e 40 -c 0 -i 13 -a 0 -x {7.0 0.1 6 ------- null}
+ -t 0.556748848888186 -s 2 -d 1 -p ack -e 40 -c 0 -i 13 -a 0 -x {7.0 0.1 6 ------- null}
- -t 0.556748848888186 -s 2 -d 1 -p ack -e 40 -c 0 -i 13 -a 0 -x {7.0 0.1 6 ------- null}
h -t 0.556748848888186 -s 2 -d 1 -p ack -e 40 -c 0 -i 13 -a 0 -x {7.0 0.1 -1 ------- null}
r -t 0.558748848888186 -s 2 -d 1 -p ack -e 40 -c 0 -i 12 -a 0 -x {7.0 0.1 5 ------- null}
+ -t 0.558748848888186 -s 1 -d 0 -p ack -e 40 -c 0 -i 12 -a 0 -x {7.0 0.1 5 ------- null}
- -t 0.558748848888186 -s 1 -d 0 -p ack -e 40 -c 0 -i 12 -a 0 -x {7.0 0.1 5 ------- null}
h -t 0.558748848888186 -s 1 -d 0 -p ack -e 40 -c 0 -i 12 -a 0 -x {7.0 0.1 -1 ------- null}
r -t 0.560748848888186 -s 1 -d 0 -p ack -e 40 -c 0 -i 11 -a 0 -x {7.0 0.1 4 ------- null}
+ -t 0.560748848888186 -s 0 -d 1 -p exp -e 1040 -c 0 -i 16 -a 0 -x {0.1 7.0 0 ------- null}
- -t 0.560748848888186 -s 0 -d 1 -p exp -e 1040 -c 0 -i 15 -a 0 -x {0.1 7.0 0 ------- null}
h -t 0.560748848888186 -s 0 -d 1 -p exp -e 1040 -c 0 -i 15 -a 0 -x {0.1 7.0 -1 ------- null}
+ -t 0.563878848888187 -s 0 -d 1 -p exp -e 1040 -c 0 -i 17 -a 0 -x {0.1 7.0 0 ------- null}
r -t 0.567068848888186 -s 2 -d 1 -p ack -e 40 -c 0 -i 13 -a 0 -x {7.0 0.1 6 ------- null}
+ -t 0.567068848888186 -s 1 -d 0 -p ack -e 40 -c 0 -i 13 -a 0 -x {7.0 0.1 6 ------- null}
- -t 0.567068848888186 -s 1 -d 0 -p ack -e 40 -c 0 -i 13 -a 0 -x {7.0 0.1 6 ------- null}
h -t 0.567068848888186 -s 1 -d 0 -p ack -e 40 -c 0 -i 13 -a 0 -x {7.0 0.1 -1 ------- null}
- -t 0.569068848888186 -s 0 -d 1 -p exp -e 1040 -c 0 -i 16 -a 0 -x {0.1 7.0 0 ------- null}
h -t 0.569068848888186 -s 0 -d 1 -p exp -e 1040 -c 0 -i 16 -a 0 -x {0.1 7.0 -1 ------- null}
r -t 0.569068848888186 -s 1 -d 0 -p ack -e 40 -c 0 -i 12 -a 0 -x {7.0 0.1 5 ------- null}
r -t 0.570748848888186 -s 0 -d 1 -p exp -e 1040 -c 0 -i 14 -a 0 -x {0.1 7.0 0 ------- null}
+ -t 0.570748848888186 -s 1 -d 2 -p exp -e 1040 -c 0 -i 14 -a 0 -x {0.1 7.0 0 ------- null}
- -t 0.570748848888186 -s 1 -d 2 -p exp -e 1040 -c 0 -i 14 -a 0 -x {0.1 7.0 0 ------- null}
h -t 0.570748848888186 -s 1 -d 2 -p exp -e 1040 -c 0 -i 14 -a 0 -x {0.1 7.0 -1 ------- null}
- -t 0.577388848888186 -s 0 -d 1 -p exp -e 1040 -c 0 -i 17 -a 0 -x {0.1 7.0 0 ------- null}
h -t 0.577388848888186 -s 0 -d 1 -p exp -e 1040 -c 0 -i 17 -a 0 -x {0.1 7.0 -1 ------- null}
r -t 0.577388848888186 -s 1 -d 0 -p ack -e 40 -c 0 -i 13 -a 0 -x {7.0 0.1 6 ------- null}
r -t 0.579068848888186 -s 0 -d 1 -p exp -e 1040 -c 0 -i 15 -a 0 -x {0.1 7.0 0 ------- null}
+ -t 0.579068848888186 -s 1 -d 2 -p exp -e 1040 -c 0 -i 15 -a 0 -x {0.1 7.0 0 ------- null}
- -t 0.579068848888186 -s 1 -d 2 -p exp -e 1040 -c 0 -i 15 -a 0 -x {0.1 7.0 0 ------- null}
h -t 0.579068848888186 -s 1 -d 2 -p exp -e 1040 -c 0 -i 15 -a 0 -x {0.1 7.0 -1 ------- null}
r -t 0.587388848888186 -s 0 -d 1 -p exp -e 1040 -c 0 -i 16 -a 0 -x {0.1 7.0 0 ------- null}
+ -t 0.587388848888186 -s 1 -d 2 -p exp -e 1040 -c 0 -i 16 -a 0 -x {0.1 7.0 0 ------- null}
- -t 0.587388848888186 -s 1 -d 2 -p exp -e 1040 -c 0 -i 16 -a 0 -x {0.1 7.0 0 ------- null}
h -t 0.587388848888186 -s 1 -d 2 -p exp -e 1040 -c 0 -i 16 -a 0 -x {0.1 7.0 -1 ------- null}
r -t 0.589068848888186 -s 1 -d 2 -p exp -e 1040 -c 0 -i 14 -a 0 -x {0.1 7.0 0 ------- null}
+ -t 0.589068848888186 -s 2 -d 7 -p exp -e 1040 -c 0 -i 14 -a 0 -x {0.1 7.0 0 ------- null}
- -t 0.589068848888186 -s 2 -d 7 -p exp -e 1040 -c 0 -i 14 -a 0 -x {0.1 7.0 0 ------- null}
h -t 0.589068848888186 -s 2 -d 7 -p exp -e 1040 -c 0 -i 14 -a 0 -x {0.1 7.0 -1 ------- null}
+ -t 0.590128848888187 -s 0 -d 1 -p exp -e 1040 -c 0 -i 18 -a 0 -x {0.1 7.0 0 ------- null}
- -t 0.590128848888187 -s 0 -d 1 -p exp -e 1040 -c 0 -i 18 -a 0 -x {0.1 7.0 0 ------- null}
h -t 0.590128848888187 -s 0 -d 1 -p exp -e 1040 -c 0 -i 18 -a 0 -x {0.1 7.0 -1 ------- null}
r -t 0.595708848888186 -s 0 -d 1 -p exp -e 1040 -c 0 -i 17 -a 0 -x {0.1 7.0 0 ------- null}
+ -t 0.595708848888186 -s 1 -d 2 -p exp -e 1040 -c 0 -i 17 -a 0 -x {0.1 7.0 0 ------- null}
- -t 0.595708848888186 -s 1 -d 2 -p exp -e 1040 -c 0 -i 17 -a 0 -x {0.1 7.0 0 ------- null}
h -t 0.595708848888186 -s 1 -d 2 -p exp -e 1040 -c 0 -i 17 -a 0 -x {0.1 7.0 -1 ------- null}
r -t 0.597388848888186 -s 1 -d 2 -p exp -e 1040 -c 0 -i 15 -a 0 -x {0.1 7.0 0 ------- null}
+ -t 0.597388848888186 -s 2 -d 7 -p exp -e 1040 -c 0 -i 15 -a 0 -x {0.1 7.0 0 ------- null}
- -t 0.597388848888186 -s 2 -d 7 -p exp -e 1040 -c 0 -i 15 -a 0 -x {0.1 7.0 0 ------- null}
h -t 0.597388848888186 -s 2 -d 7 -p exp -e 1040 -c 0 -i 15 -a 0 -x {0.1 7.0 -1 ------- null}
r -t 0.603228848888186 -s 2 -d 7 -p exp -e 1040 -c 0 -i 14 -a 0 -x {0.1 7.0 0 ------- null}
+ -t 0.603228848888186 -s 7 -d 2 -p ack -e 40 -c 0 -i 19 -a 0 -x {7.0 0.1 7 ------- null}
- -t 0.603228848888186 -s 7 -d 2 -p ack -e 40 -c 0 -i 19 -a 0 -x {7.0 0.1 7 ------- null}
h -t 0.603228848888186 -s 7 -d 2 -p ack -e 40 -c 0 -i 19 -a 0 -x {7.0 0.1 -1 ------- null}
r -t 0.605708848888186 -s 1 -d 2 -p exp -e 1040 -c 0 -i 16 -a 0 -x {0.1 7.0 0 ------- null}
+ -t 0.605708848888186 -s 2 -d 7 -p exp -e 1040 -c 0 -i 16 -a 0 -x {0.1 7.0 0 ------- null}
- -t 0.605708848888186 -s 2 -d 7 -p exp -e 1040 -c 0 -i 16 -a 0 -x {0.1 7.0 0 ------- null}
h -t 0.605708848888186 -s 2 -d 7 -p exp -e 1040 -c 0 -i 16 -a 0 -x {0.1 7.0 -1 ------- null}
r -t 0.608448848888187 -s 0 -d 1 -p exp -e 1040 -c 0 -i 18 -a 0 -x {0.1 7.0 0 ------- null}
+ -t 0.608448848888187 -s 1 -d 2 -p exp -e 1040 -c 0 -i 18 -a 0 -x {0.1 7.0 0 ------- null}
- -t 0.608448848888187 -s 1 -d 2 -p exp -e 1040 -c 0 -i 18 -a 0 -x {0.1 7.0 0 ------- null}
h -t 0.608448848888187 -s 1 -d 2 -p exp -e 1040 -c 0 -i 18 -a 0 -x {0.1 7.0 -1 ------- null}
r -t 0.611548848888186 -s 2 -d 7 -p exp -e 1040 -c 0 -i 15 -a 0 -x {0.1 7.0 0 ------- null}
+ -t 0.611548848888186 -s 7 -d 2 -p ack -e 40 -c 0 -i 20 -a 0 -x {7.0 0.1 8 ------- null}
- -t 0.611548848888186 -s 7 -d 2 -p ack -e 40 -c 0 -i 20 -a 0 -x {7.0 0.1 8 ------- null}
h -t 0.611548848888186 -s 7 -d 2 -p ack -e 40 -c 0 -i 20 -a 0 -x {7.0 0.1 -1 ------- null}
r -t 0.613388848888186 -s 7 -d 2 -p ack -e 40 -c 0 -i 19 -a 0 -x {7.0 0.1 7 ------- null}
+ -t 0.613388848888186 -s 2 -d 1 -p ack -e 40 -c 0 -i 19 -a 0 -x {7.0 0.1 7 ------- null}
- -t 0.613388848888186 -s 2 -d 1 -p ack -e 40 -c 0 -i 19 -a 0 -x {7.0 0.1 7 ------- null}
h -t 0.613388848888186 -s 2 -d 1 -p ack -e 40 -c 0 -i 19 -a 0 -x {7.0 0.1 -1 ------- null}
r -t 0.614028848888186 -s 1 -d 2 -p exp -e 1040 -c 0 -i 17 -a 0 -x {0.1 7.0 0 ------- null}
+ -t 0.614028848888186 -s 2 -d 7 -p exp -e 1040 -c 0 -i 17 -a 0 -x {0.1 7.0 0 ------- null}
- -t 0.614028848888186 -s 2 -d 7 -p exp -e 1040 -c 0 -i 17 -a 0 -x {0.1 7.0 0 ------- null}
h -t 0.614028848888186 -s 2 -d 7 -p exp -e 1040 -c 0 -i 17 -a 0 -x {0.1 7.0 -1 ------- null}
+ -t 0.616378848888187 -s 0 -d 1 -p exp -e 1040 -c 0 -i 21 -a 0 -x {0.1 7.0 0 ------- null}
- -t 0.616378848888187 -s 0 -d 1 -p exp -e 1040 -c 0 -i 21 -a 0 -x {0.1 7.0 0 ------- null}
h -t 0.616378848888187 -s 0 -d 1 -p exp -e 1040 -c 0 -i 21 -a 0 -x {0.1 7.0 -1 ------- null}
r -t 0.619868848888186 -s 2 -d 7 -p exp -e 1040 -c 0 -i 16 -a 0 -x {0.1 7.0 0 ------- null}
+ -t 0.619868848888186 -s 7 -d 2 -p ack -e 40 -c 0 -i 22 -a 0 -x {7.0 0.1 9 ------- null}
- -t 0.619868848888186 -s 7 -d 2 -p ack -e 40 -c 0 -i 22 -a 0 -x {7.0 0.1 9 ------- null}
h -t 0.619868848888186 -s 7 -d 2 -p ack -e 40 -c 0 -i 22 -a 0 -x {7.0 0.1 -1 ------- null}
r -t 0.621708848888186 -s 7 -d 2 -p ack -e 40 -c 0 -i 20 -a 0 -x {7.0 0.1 8 ------- null}
+ -t 0.621708848888186 -s 2 -d 1 -p ack -e 40 -c 0 -i 20 -a 0 -x {7.0 0.1 8 ------- null}
- -t 0.621708848888186 -s 2 -d 1 -p ack -e 40 -c 0 -i 20 -a 0 -x {7.0 0.1 8 ------- null}
h -t 0.621708848888186 -s 2 -d 1 -p ack -e 40 -c 0 -i 20 -a 0 -x {7.0 0.1 -1 ------- null}
r -t 0.623708848888186 -s 2 -d 1 -p ack -e 40 -c 0 -i 19 -a 0 -x {7.0 0.1 7 ------- null}
+ -t 0.623708848888186 -s 1 -d 0 -p ack -e 40 -c 0 -i 19 -a 0 -x {7.0 0.1 7 ------- null}
- -t 0.623708848888186 -s 1 -d 0 -p ack -e 40 -c 0 -i 19 -a 0 -x {7.0 0.1 7 ------- null}
h -t 0.623708848888186 -s 1 -d 0 -p ack -e 40 -c 0 -i 19 -a 0 -x {7.0 0.1 -1 ------- null}
r -t 0.626768848888187 -s 1 -d 2 -p exp -e 1040 -c 0 -i 18 -a 0 -x {0.1 7.0 0 ------- null}
+ -t 0.626768848888187 -s 2 -d 7 -p exp -e 1040 -c 0 -i 18 -a 0 -x {0.1 7.0 0 ------- null}
- -t 0.626768848888187 -s 2 -d 7 -p exp -e 1040 -c 0 -i 18 -a 0 -x {0.1 7.0 0 ------- null}
h -t 0.626768848888187 -s 2 -d 7 -p exp -e 1040 -c 0 -i 18 -a 0 -x {0.1 7.0 -1 ------- null}
r -t 0.628188848888186 -s 2 -d 7 -p exp -e 1040 -c 0 -i 17 -a 0 -x {0.1 7.0 0 ------- null}
+ -t 0.628188848888186 -s 7 -d 2 -p ack -e 40 -c 0 -i 23 -a 0 -x {7.0 0.1 10 ------- null}
- -t 0.628188848888186 -s 7 -d 2 -p ack -e 40 -c 0 -i 23 -a 0 -x {7.0 0.1 10 ------- null}
h -t 0.628188848888186 -s 7 -d 2 -p ack -e 40 -c 0 -i 23 -a 0 -x {7.0 0.1 -1 ------- null}
r -t 0.630028848888186 -s 7 -d 2 -p ack -e 40 -c 0 -i 22 -a 0 -x {7.0 0.1 9 ------- null}
+ -t 0.630028848888186 -s 2 -d 1 -p ack -e 40 -c 0 -i 22 -a 0 -x {7.0 0.1 9 ------- null}
- -t 0.630028848888186 -s 2 -d 1 -p ack -e 40 -c 0 -i 22 -a 0 -x {7.0 0.1 9 ------- null}
h -t 0.630028848888186 -s 2 -d 1 -p ack -e 40 -c 0 -i 22 -a 0 -x {7.0 0.1 -1 ------- null}
r -t 0.632028848888186 -s 2 -d 1 -p ack -e 40 -c 0 -i 20 -a 0 -x {7.0 0.1 8 ------- null}
+ -t 0.632028848888186 -s 1 -d 0 -p ack -e 40 -c 0 -i 20 -a 0 -x {7.0 0.1 8 ------- null}
- -t 0.632028848888186 -s 1 -d 0 -p ack -e 40 -c 0 -i 20 -a 0 -x {7.0 0.1 8 ------- null}
h -t 0.632028848888186 -s 1 -d 0 -p ack -e 40 -c 0 -i 20 -a 0 -x {7.0 0.1 -1 ------- null}
r -t 0.634028848888186 -s 1 -d 0 -p ack -e 40 -c 0 -i 19 -a 0 -x {7.0 0.1 7 ------- null}
r -t 0.634698848888187 -s 0 -d 1 -p exp -e 1040 -c 0 -i 21 -a 0 -x {0.1 7.0 0 ------- null}
+ -t 0.634698848888187 -s 1 -d 2 -p exp -e 1040 -c 0 -i 21 -a 0 -x {0.1 7.0 0 ------- null}
- -t 0.634698848888187 -s 1 -d 2 -p exp -e 1040 -c 0 -i 21 -a 0 -x {0.1 7.0 0 ------- null}
h -t 0.634698848888187 -s 1 -d 2 -p exp -e 1040 -c 0 -i 21 -a 0 -x {0.1 7.0 -1 ------- null}
r -t 0.638348848888186 -s 7 -d 2 -p ack -e 40 -c 0 -i 23 -a 0 -x {7.0 0.1 10 ------- null}
+ -t 0.638348848888186 -s 2 -d 1 -p ack -e 40 -c 0 -i 23 -a 0 -x {7.0 0.1 10 ------- null}
- -t 0.638348848888186 -s 2 -d 1 -p ack -e 40 -c 0 -i 23 -a 0 -x {7.0 0.1 10 ------- null}
h -t 0.638348848888186 -s 2 -d 1 -p ack -e 40 -c 0 -i 23 -a 0 -x {7.0 0.1 -1 ------- null}
r -t 0.640348848888186 -s 2 -d 1 -p ack -e 40 -c 0 -i 22 -a 0 -x {7.0 0.1 9 ------- null}
+ -t 0.640348848888186 -s 1 -d 0 -p ack -e 40 -c 0 -i 22 -a 0 -x {7.0 0.1 9 ------- null}
- -t 0.640348848888186 -s 1 -d 0 -p ack -e 40 -c 0 -i 22 -a 0 -x {7.0 0.1 9 ------- null}
h -t 0.640348848888186 -s 1 -d 0 -p ack -e 40 -c 0 -i 22 -a 0 -x {7.0 0.1 -1 ------- null}
r -t 0.640928848888186 -s 2 -d 7 -p exp -e 1040 -c 0 -i 18 -a 0 -x {0.1 7.0 0 ------- null}
+ -t 0.640928848888186 -s 7 -d 2 -p ack -e 40 -c 0 -i 24 -a 0 -x {7.0 0.1 11 ------- null}
- -t 0.640928848888186 -s 7 -d 2 -p ack -e 40 -c 0 -i 24 -a 0 -x {7.0 0.1 11 ------- null}
h -t 0.640928848888186 -s 7 -d 2 -p ack -e 40 -c 0 -i 24 -a 0 -x {7.0 0.1 -1 ------- null}
r -t 0.642348848888186 -s 1 -d 0 -p ack -e 40 -c 0 -i 20 -a 0 -x {7.0 0.1 8 ------- null}
+ -t 0.642628848888186 -s 0 -d 1 -p exp -e 1040 -c 0 -i 25 -a 0 -x {0.1 7.0 0 ------- null}
- -t 0.642628848888186 -s 0 -d 1 -p exp -e 1040 -c 0 -i 25 -a 0 -x {0.1 7.0 0 ------- null}
h -t 0.642628848888186 -s 0 -d 1 -p exp -e 1040 -c 0 -i 25 -a 0 -x {0.1 7.0 -1 ------- null}
r -t 0.648668848888186 -s 2 -d 1 -p ack -e 40 -c 0 -i 23 -a 0 -x {7.0 0.1 10 ------- null}
+ -t 0.648668848888186 -s 1 -d 0 -p ack -e 40 -c 0 -i 23 -a 0 -x {7.0 0.1 10 ------- null}
- -t 0.648668848888186 -s 1 -d 0 -p ack -e 40 -c 0 -i 23 -a 0 -x {7.0 0.1 10 ------- null}
h -t 0.648668848888186 -s 1 -d 0 -p ack -e 40 -c 0 -i 23 -a 0 -x {7.0 0.1 -1 ------- null}
r -t 0.650668848888186 -s 1 -d 0 -p ack -e 40 -c 0 -i 22 -a 0 -x {7.0 0.1 9 ------- null}
r -t 0.651088848888186 -s 7 -d 2 -p ack -e 40 -c 0 -i 24 -a 0 -x {7.0 0.1 11 ------- null}
+ -t 0.651088848888186 -s 2 -d 1 -p ack -e 40 -c 0 -i 24 -a 0 -x {7.0 0.1 11 ------- null}
- -t 0.651088848888186 -s 2 -d 1 -p ack -e 40 -c 0 -i 24 -a 0 -x {7.0 0.1 11 ------- null}
h -t 0.651088848888186 -s 2 -d 1 -p ack -e 40 -c 0 -i 24 -a 0 -x {7.0 0.1 -1 ------- null}
r -t 0.653018848888187 -s 1 -d 2 -p exp -e 1040 -c 0 -i 21 -a 0 -x {0.1 7.0 0 ------- null}
+ -t 0.653018848888187 -s 2 -d 7 -p exp -e 1040 -c 0 -i 21 -a 0 -x {0.1 7.0 0 ------- null}
- -t 0.653018848888187 -s 2 -d 7 -p exp -e 1040 -c 0 -i 21 -a 0 -x {0.1 7.0 0 ------- null}
h -t 0.653018848888187 -s 2 -d 7 -p exp -e 1040 -c 0 -i 21 -a 0 -x {0.1 7.0 -1 ------- null}
r -t 0.658988848888186 -s 1 -d 0 -p ack -e 40 -c 0 -i 23 -a 0 -x {7.0 0.1 10 ------- null}
r -t 0.660948848888187 -s 0 -d 1 -p exp -e 1040 -c 0 -i 25 -a 0 -x {0.1 7.0 0 ------- null}
+ -t 0.660948848888187 -s 1 -d 2 -p exp -e 1040 -c 0 -i 25 -a 0 -x {0.1 7.0 0 ------- null}
- -t 0.660948848888187 -s 1 -d 2 -p exp -e 1040 -c 0 -i 25 -a 0 -x {0.1 7.0 0 ------- null}
h -t 0.660948848888187 -s 1 -d 2 -p exp -e 1040 -c 0 -i 25 -a 0 -x {0.1 7.0 -1 ------- null}
r -t 0.661408848888186 -s 2 -d 1 -p ack -e 40 -c 0 -i 24 -a 0 -x {7.0 0.1 11 ------- null}
+ -t 0.661408848888186 -s 1 -d 0 -p ack -e 40 -c 0 -i 24 -a 0 -x {7.0 0.1 11 ------- null}
- -t 0.661408848888186 -s 1 -d 0 -p ack -e 40 -c 0 -i 24 -a 0 -x {7.0 0.1 11 ------- null}
h -t 0.661408848888186 -s 1 -d 0 -p ack -e 40 -c 0 -i 24 -a 0 -x {7.0 0.1 -1 ------- null}
r -t 0.667178848888186 -s 2 -d 7 -p exp -e 1040 -c 0 -i 21 -a 0 -x {0.1 7.0 0 ------- null}
+ -t 0.667178848888186 -s 7 -d 2 -p ack -e 40 -c 0 -i 26 -a 0 -x {7.0 0.1 12 ------- null}
- -t 0.667178848888186 -s 7 -d 2 -p ack -e 40 -c 0 -i 26 -a 0 -x {7.0 0.1 12 ------- null}
h -t 0.667178848888186 -s 7 -d 2 -p ack -e 40 -c 0 -i 26 -a 0 -x {7.0 0.1 -1 ------- null}
+ -t 0.668878848888186 -s 0 -d 1 -p exp -e 1040 -c 0 -i 27 -a 0 -x {0.1 7.0 0 ------- null}
- -t 0.668878848888186 -s 0 -d 1 -p exp -e 1040 -c 0 -i 27 -a 0 -x {0.1 7.0 0 ------- null}
h -t 0.668878848888186 -s 0 -d 1 -p exp -e 1040 -c 0 -i 27 -a 0 -x {0.1 7.0 -1 ------- null}
r -t 0.671728848888186 -s 1 -d 0 -p ack -e 40 -c 0 -i 24 -a 0 -x {7.0 0.1 11 ------- null}
r -t 0.677338848888186 -s 7 -d 2 -p ack -e 40 -c 0 -i 26 -a 0 -x {7.0 0.1 12 ------- null}
+ -t 0.677338848888186 -s 2 -d 1 -p ack -e 40 -c 0 -i 26 -a 0 -x {7.0 0.1 12 ------- null}