v 0.20000000000000001 eval {set sim_annotation {Starting HTTP from 0 to 5}}
+ 1.440763 0 1 exp 40 ------- 0 0.0 5.0 0 0
- 1.440763 0 1 exp 40 ------- 0 0.0 5.0 0 0
r 1.482763 0 1 exp 40 ------- 0 0.0 5.0 0 0
+ 1.482763 1 2 exp 40 ------- 0 0.0 5.0 0 0
- 1.482763 1 2 exp 40 ------- 0 0.0 5.0 0 0
r 1.499163 1 2 exp 40 ------- 0 0.0 5.0 0 0
+ 1.499163 2 5 exp 40 ------- 0 0.0 5.0 0 0
- 1.499163 2 5 exp 40 ------- 0 0.0 5.0 0 0
r 1.510763 2 5 exp 40 ------- 0 0.0 5.0 0 0
+ 1.510763 5 2 ack 40 ------- 0 5.0 0.0 0 1
- 1.510763 5 2 ack 40 ------- 0 5.0 0.0 0 1
r 1.522363 5 2 ack 40 ------- 0 5.0 0.0 0 1
+ 1.522363 2 1 ack 40 ------- 0 5.0 0.0 0 1
- 1.522363 2 1 ack 40 ------- 0 5.0 0.0 0 1
r 1.538763 2 1 ack 40 ------- 0 5.0 0.0 0 1
+ 1.538763 1 0 ack 40 ------- 0 5.0 0.0 0 1
- 1.538763 1 0 ack 40 ------- 0 5.0 0.0 0 1
r 1.580763 1 0 ack 40 ------- 0 5.0 0.0 0 1
+ 1.580763 0 1 exp 1040 ------- 0 0.0 5.0 0 2
- 1.580763 0 1 exp 1040 ------- 0 0.0 5.0 0 2
+ 1.580763 0 1 exp 1040 ------- 0 0.0 5.0 0 3
+ 2.000763 0 1 exp 1040 ---A--- 0 0.0 5.0 0 4
- 2.412763 0 1 exp 1040 ------- 0 0.0 5.0 0 3
r 2.422763 0 1 exp 1040 ------- 0 0.0 5.0 0 2
+ 2.422763 1 2 exp 1040 ------- 0 0.0 5.0 0 2
- 2.422763 1 2 exp 1040 ------- 0 0.0 5.0 0 2
r 2.599163 1 2 exp 1040 ------- 0 0.0 5.0 0 2
+ 2.599163 2 5 exp 1040 ------- 0 0.0 5.0 0 2
- 2.599163 2 5 exp 1040 ------- 0 0.0 5.0 0 2
r 2.650763 2 5 exp 1040 ------- 0 0.0 5.0 0 2
+ 2.650763 5 2 ack 40 ------- 0 5.0 0.0 1 5
- 2.650763 5 2 ack 40 ------- 0 5.0 0.0 1 5
r 2.662363 5 2 ack 40 ------- 0 5.0 0.0 1 5
+ 2.662363 2 1 ack 40 ------- 0 5.0 0.0 1 5
- 2.662363 2 1 ack 40 ------- 0 5.0 0.0 1 5
r 2.678763 2 1 ack 40 ------- 0 5.0 0.0 1 5
+ 2.678763 1 0 ack 40 ------- 0 5.0 0.0 1 5
- 2.678763 1 0 ack 40 ------- 0 5.0 0.0 1 5
r 2.720763 1 0 ack 40 ------- 0 5.0 0.0 1 5
+ 2.720763 0 1 exp 1040 ------- 0 0.0 5.0 0 6
+ 2.720763 0 1 exp 1040 ------- 0 0.0 5.0 0 7
- 3.244763 0 1 exp 1040 ---A--- 0 0.0 5.0 0 4
r 3.254763 0 1 exp 1040 ------- 0 0.0 5.0 0 3
+ 3.254763 1 2 exp 1040 ------- 0 0.0 5.0 0 3
- 3.254763 1 2 exp 1040 ------- 0 0.0 5.0 0 3
r 3.431163 1 2 exp 1040 ------- 0 0.0 5.0 0 3
+ 3.431163 2 5 exp 1040 ------- 0 0.0 5.0 0 3
- 3.431163 2 5 exp 1040 ------- 0 0.0 5.0 0 3
r 3.482763 2 5 exp 1040 ------- 0 0.0 5.0 0 3
+ 3.482763 5 2 ack 40 ------- 0 5.0 0.0 2 8
- 3.482763 5 2 ack 40 ------- 0 5.0 0.0 2 8
r 3.494363 5 2 ack 40 ------- 0 5.0 0.0 2 8
+ 3.494363 2 1 ack 40 ------- 0 5.0 0.0 2 8
- 3.494363 2 1 ack 40 ------- 0 5.0 0.0 2 8
r 3.510763 2 1 ack 40 ------- 0 5.0 0.0 2 8
+ 3.510763 1 0 ack 40 ------- 0 5.0 0.0 2 8
- 3.510763 1 0 ack 40 ------- 0 5.0 0.0 2 8
r 3.552763 1 0 ack 40 ------- 0 5.0 0.0 2 8
+ 3.552763 0 1 exp 1040 ------- 0 0.0 5.0 0 9
- 4.076763 0 1 exp 1040 ------- 0 0.0 5.0 0 6
r 4.086763 0 1 exp 1040 ---A--- 0 0.0 5.0 0 4
+ 4.086763 1 2 exp 1040 ---A--- 0 0.0 5.0 0 4
- 4.086763 1 2 exp 1040 ---A--- 0 0.0 5.0 0 4
r 4.263163 1 2 exp 1040 ---A--- 0 0.0 5.0 0 4
+ 4.263163 2 5 exp 1040 ---A--- 0 0.0 5.0 0 4
- 4.263163 2 5 exp 1040 ---A--- 0 0.0 5.0 0 4
r 4.314763 2 5 exp 1040 ---A--- 0 0.0 5.0 0 4
+ 4.314763 5 2 ack 40 ------- 0 5.0 0.0 2 10
- 4.314763 5 2 ack 40 ------- 0 5.0 0.0 2 10
r 4.326363 5 2 ack 40 ------- 0 5.0 0.0 2 10
+ 4.326363 2 1 ack 40 ------- 0 5.0 0.0 2 10
- 4.326363 2 1 ack 40 ------- 0 5.0 0.0 2 10
r 4.342763 2 1 ack 40 ------- 0 5.0 0.0 2 10
+ 4.342763 1 0 ack 40 ------- 0 5.0 0.0 2 10
- 4.342763 1 0 ack 40 ------- 0 5.0 0.0 2 10
r 4.384763 1 0 ack 40 ------- 0 5.0 0.0 2 10
+ 4.384763 0 1 exp 1040 ------- 0 0.0 5.0 0 11
+ 4.392763 0 1 exp 1040 ---A--- 0 0.0 5.0 0 12
- 4.908763 0 1 exp 1040 ------- 0 0.0 5.0 0 7
r 4.918763 0 1 exp 1040 ------- 0 0.0 5.0 0 6
+ 4.918763 1 2 exp 1040 ------- 0 0.0 5.0 0 6
- 4.918763 1 2 exp 1040 ------- 0 0.0 5.0 0 6
