v 0.20000000000000001 eval {set sim_annotation {Starting HTTP from 0 to 5}}
+ 0.635409 0 1 exp 1000 ------- 0 0.0 5.0 0 0
- 0.635409 0 1 exp 1000 ------- 0 0.0 5.0 0 0
r 1.445409 0 1 exp 1000 ------- 0 0.0 5.0 0 0
+ 1.445409 1 2 exp 1000 ------- 0 0.0 5.0 0 0
- 1.445409 1 2 exp 1000 ------- 0 0.0 5.0 0 0
r 1.615409 1 2 exp 1000 ------- 0 0.0 5.0 0 0
+ 1.615409 2 5 exp 1000 ------- 0 0.0 5.0 0 0
- 1.615409 2 5 exp 1000 ------- 0 0.0 5.0 0 0
r 1.665409 2 5 exp 1000 ------- 0 0.0 5.0 0 0
+ 1.665409 5 2 ack 40 ------- 0 5.0 0.0 0 1
- 1.665409 5 2 ack 40 ------- 0 5.0 0.0 0 1
r 1.677009 5 2 ack 40 ------- 0 5.0 0.0 0 1
+ 1.677009 2 1 ack 40 ------- 0 5.0 0.0 0 1
- 1.677009 2 1 ack 40 ------- 0 5.0 0.0 0 1
r 1.693409 2 1 ack 40 ------- 0 5.0 0.0 0 1
+ 1.693409 1 0 ack 40 ------- 0 5.0 0.0 0 1
- 1.693409 1 0 ack 40 ------- 0 5.0 0.0 0 1
r 1.735409 1 0 ack 40 ------- 0 5.0 0.0 0 1
+ 1.735409 0 1 exp 1000 ------- 0 0.0 5.0 0 2
- 1.735409 0 1 exp 1000 ------- 0 0.0 5.0 0 2
r 2.545409 0 1 exp 1000 ------- 0 0.0 5.0 0 2
+ 2.545409 1 2 exp 1000 ------- 0 0.0 5.0 0 2
- 2.545409 1 2 exp 1000 ------- 0 0.0 5.0 0 2
r 2.715409 1 2 exp 1000 ------- 0 0.0 5.0 0 2
+ 2.715409 2 5 exp 1000 ------- 0 0.0 5.0 0 2
- 2.715409 2 5 exp 1000 ------- 0 0.0 5.0 0 2
r 2.765409 2 5 exp 1000 ------- 0 0.0 5.0 0 2
+ 2.765409 5 2 ack 40 ------- 0 5.0 0.0 1 3
- 2.765409 5 2 ack 40 ------- 0 5.0 0.0 1 3
r 2.777009 5 2 ack 40 ------- 0 5.0 0.0 1 3
+ 2.777009 2 1 ack 40 ------- 0 5.0 0.0 1 3
- 2.777009 2 1 ack 40 ------- 0 5.0 0.0 1 3
r 2.793409 2 1 ack 40 ------- 0 5.0 0.0 1 3
+ 2.793409 1 0 ack 40 ------- 0 5.0 0.0 1 3
- 2.793409 1 0 ack 40 ------- 0 5.0 0.0 1 3
r 2.835409 1 0 ack 40 ------- 0 5.0 0.0 1 3
+ 2.835409 0 1 exp 1000 ------- 0 0.0 5.0 0 4
- 2.835409 0 1 exp 1000 ------- 0 0.0 5.0 0 4
+ 2.835409 0 1 exp 1000 ------- 0 0.0 5.0 0 5
+ 2.835409 0 1 exp 1000 ------- 0 0.0 5.0 0 6
- 3.635409 0 1 exp 1000 ------- 0 0.0 5.0 0 5
r 3.645409 0 1 exp 1000 ------- 0 0.0 5.0 0 4
+ 3.645409 1 2 exp 1000 ------- 0 0.0 5.0 0 4
- 3.645409 1 2 exp 1000 ------- 0 0.0 5.0 0 4
r 3.815409 1 2 exp 1000 ------- 0 0.0 5.0 0 4
+ 3.815409 2 5 exp 1000 ------- 0 0.0 5.0 0 4
- 3.815409 2 5 exp 1000 ------- 0 0.0 5.0 0 4
r 3.865409 2 5 exp 1000 ------- 0 0.0 5.0 0 4
+ 3.865409 5 2 ack 40 ------- 0 5.0 0.0 2 7
- 3.865409 5 2 ack 40 ------- 0 5.0 0.0 2 7
r 3.877009 5 2 ack 40 ------- 0 5.0 0.0 2 7
+ 3.877009 2 1 ack 40 ------- 0 5.0 0.0 2 7
- 3.877009 2 1 ack 40 ------- 0 5.0 0.0 2 7
r 3.893409 2 1 ack 40 ------- 0 5.0 0.0 2 7
+ 3.893409 1 0 ack 40 ------- 0 5.0 0.0 2 7
- 3.893409 1 0 ack 40 ------- 0 5.0 0.0 2 7
r 3.935409 1 0 ack 40 ------- 0 5.0 0.0 2 7
+ 3.935409 0 1 exp 1000 ------- 0 0.0 5.0 0 8
- 4.435409 0 1 exp 1000 ------- 0 0.0 5.0 0 6
r 4.445409 0 1 exp 1000 ------- 0 0.0 5.0 0 5
+ 4.445409 1 2 exp 1000 ------- 0 0.0 5.0 0 5
- 4.445409 1 2 exp 1000 ------- 0 0.0 5.0 0 5
r 4.615409 1 2 exp 1000 ------- 0 0.0 5.0 0 5
+ 4.615409 2 5 exp 1000 ------- 0 0.0 5.0 0 5
- 4.615409 2 5 exp 1000 ------- 0 0.0 5.0 0 5
r 4.665409 2 5 exp 1000 ------- 0 0.0 5.0 0 5
+ 4.665409 5 2 ack 40 ------- 0 5.0 0.0 3 9
- 4.665409 5 2 ack 40 ------- 0 5.0 0.0 3 9
r 4.677009 5 2 ack 40 ------- 0 5.0 0.0 3 9
+ 4.677009 2 1 ack 40 ------- 0 5.0 0.0 3 9
- 4.677009 2 1 ack 40 ------- 0 5.0 0.0 3 9
r 4.693409 2 1 ack 40 ------- 0 5.0 0.0 3 9
+ 4.693409 1 0 ack 40 ------- 0 5.0 0.0 3 9
- 4.693409 1 0 ack 40 ------- 0 5.0 0.0 3 9
r 4.735409 1 0 ack 40 ------- 0 5.0 0.0 3 9
+ 4.735409 0 1 exp 1000 ------- 0 0.0 5.0 0 10
