+ 1 0 1 cbr 210 ------- 0 0.0 3.0 0 0
- 1 0 1 cbr 210 ------- 0 0.0 3.0 0 0
r 1.002336 0 1 cbr 210 ------- 0 0.0 3.0 0 0
+ 1.002336 1 4 cbr 210 ------- 0 0.0 3.0 0 0
- 1.002336 1 4 cbr 210 ------- 0 0.0 3.0 0 0
+ 1.00375 0 1 cbr 210 ------- 0 0.0 3.0 1 1
- 1.00375 0 1 cbr 210 ------- 0 0.0 3.0 1 1
r 1.006086 0 1 cbr 210 ------- 0 0.0 3.0 1 1
+ 1.006086 1 4 cbr 210 ------- 0 0.0 3.0 1 1
- 1.006086 1 4 cbr 210 ------- 0 0.0 3.0 1 1
+ 1.0075 0 1 cbr 210 ------- 0 0.0 3.0 2 2
- 1.0075 0 1 cbr 210 ------- 0 0.0 3.0 2 2
r 1.009836 0 1 cbr 210 ------- 0 0.0 3.0 2 2
+ 1.009836 1 4 cbr 210 ------- 0 0.0 3.0 2 2
- 1.009836 1 4 cbr 210 ------- 0 0.0 3.0 2 2
+ 1.01125 0 1 cbr 210 ------- 0 0.0 3.0 3 3
- 1.01125 0 1 cbr 210 ------- 0 0.0 3.0 3 3
r 1.012896 1 4 cbr 210 ------- 0 0.0 3.0 0 0
+ 1.012896 4 3 cbr 210 ------- 0 0.0 3.0 0 0
- 1.012896 4 3 cbr 210 ------- 0 0.0 3.0 0 0
r 1.013586 0 1 cbr 210 ------- 0 0.0 3.0 3 3
+ 1.013586 1 4 cbr 210 ------- 0 0.0 3.0 3 3
- 1.013586 1 4 cbr 210 ------- 0 0.0 3.0 3 3
r 1.014913 4 3 cbr 210 ------- 0 0.0 3.0 0 0
+ 1.015 0 1 cbr 210 ------- 0 0.0 3.0 4 4
- 1.015 0 1 cbr 210 ------- 0 0.0 3.0 4 4
r 1.016646 1 4 cbr 210 ------- 0 0.0 3.0 1 1
+ 1.016646 4 3 cbr 210 ------- 0 0.0 3.0 1 1
- 1.016646 4 3 cbr 210 ------- 0 0.0 3.0 1 1
r 1.017336 0 1 cbr 210 ------- 0 0.0 3.0 4 4
+ 1.017336 1 4 cbr 210 ------- 0 0.0 3.0 4 4
- 1.017336 1 4 cbr 210 ------- 0 0.0 3.0 4 4
r 1.018663 4 3 cbr 210 ------- 0 0.0 3.0 1 1
+ 1.01875 0 1 cbr 210 ------- 0 0.0 3.0 5 5
- 1.01875 0 1 cbr 210 ------- 0 0.0 3.0 5 5
r 1.020396 1 4 cbr 210 ------- 0 0.0 3.0 2 2
+ 1.020396 4 3 cbr 210 ------- 0 0.0 3.0 2 2
- 1.020396 4 3 cbr 210 ------- 0 0.0 3.0 2 2
r 1.021086 0 1 cbr 210 ------- 0 0.0 3.0 5 5
+ 1.021086 1 4 cbr 210 ------- 0 0.0 3.0 5 5
- 1.021086 1 4 cbr 210 ------- 0 0.0 3.0 5 5
r 1.022413 4 3 cbr 210 ------- 0 0.0 3.0 2 2
+ 1.0225 0 1 cbr 210 ------- 0 0.0 3.0 6 6
- 1.0225 0 1 cbr 210 ------- 0 0.0 3.0 6 6
r 1.024146 1 4 cbr 210 ------- 0 0.0 3.0 3 3
+ 1.024146 4 3 cbr 210 ------- 0 0.0 3.0 3 3
- 1.024146 4 3 cbr 210 ------- 0 0.0 3.0 3 3
r 1.024836 0 1 cbr 210 ------- 0 0.0 3.0 6 6
+ 1.024836 1 4 cbr 210 ------- 0 0.0 3.0 6 6
- 1.024836 1 4 cbr 210 ------- 0 0.0 3.0 6 6
r 1.026163 4 3 cbr 210 ------- 0 0.0 3.0 3 3
+ 1.02625 0 1 cbr 210 ------- 0 0.0 3.0 7 7
- 1.02625 0 1 cbr 210 ------- 0 0.0 3.0 7 7
r 1.027896 1 4 cbr 210 ------- 0 0.0 3.0 4 4
+ 1.027896 4 3 cbr 210 ------- 0 0.0 3.0 4 4
- 1.027896 4 3 cbr 210 ------- 0 0.0 3.0 4 4
r 1.028586 0 1 cbr 210 ------- 0 0.0 3.0 7 7
+ 1.028586 1 4 cbr 210 ------- 0 0.0 3.0 7 7
- 1.028586 1 4 cbr 210 ------- 0 0.0 3.0 7 7
r 1.029913 4 3 cbr 210 ------- 0 0.0 3.0 4 4
+ 1.03 0 1 cbr 210 ------- 0 0.0 3.0 8 8
- 1.03 0 1 cbr 210 ------- 0 0.0 3.0 8 8
r 1.031646 1 4 cbr 210 ------- 0 0.0 3.0 5 5
+ 1.031646 4 3 cbr 210 ------- 0 0.0 3.0 5 5
- 1.031646 4 3 cbr 210 ------- 0 0.0 3.0 5 5
r 1.032336 0 1 cbr 210 ------- 0 0.0 3.0 8 8
+ 1.032336 1 4 cbr 210 ------- 0 0.0 3.0 8 8
- 1.032336 1 4 cbr 210 ------- 0 0.0 3.0 8 8
r 1.033663 4 3 cbr 210 ------- 0 0.0 3.0 5 5
+ 1.03375 0 1 cbr 210 ------- 0 0.0 3.0 9 9
- 1.03375 0 1 cbr 210 ------- 0 0.0 3.0 9 9
r 1.035396 1 4 cbr 210 ------- 0 0.0 3.0 6 6
+ 1.035396 4 3 cbr 210 ------- 0 0.0 3.0 6 6
- 1.035396 4 3 cbr 210 ------- 0 0.0 3.0 6 6
r 1.036086 0 1 cbr 210 ------- 0 0.0 3.0 9 9
+ 1.036086 1 4 cbr 210 ------- 0 0.0 3.0 9 9
- 1.036086 1 4 cbr 210 ------- 0 0.0 3.0 9 9
r 1.037413 4 3 cbr 210 ------- 0 0.0 3.0 6 6
+ 1.0375 0 1 cbr 210 ------- 0 0.0 3.0 10 10
- 1.0375 0 1 cbr 210 ------- 0 0.0 3.0 10 10
r 1.039146 1 4 cbr 210 ------- 0 0.0 3.0 7 7
+ 1.039146 4 3 cbr 210 ------- 0 0.0 3.0 7 7
- 1.039146 4 3 cbr 210 ------- 0 0.0 3.0 7 7
r 1.039836 0 1 cbr 210 ------- 0 0.0 3.0 10 10
+ 1.039836 1 4 cbr 210 ------- 0 0.0 3.0 10 10
- 1.039836 1 4 cbr 210 ------- 0 0.0 3.0 10 10
r 1.041163 4 3 cbr 210 ------- 0 0.0 3.0 7 7
+ 1.04125 0 1 cbr 210 ------- 0 0.0 3.0 11 11
- 1.04125 0 1 cbr 210 ------- 0 0.0 3.0 11 11
r 1.042896 1 4 cbr 210 ------- 0 0.0 3.0 8 8
+ 1.042896 4 3 cbr 210 ------- 0 0.0 3.0 8 8
- 1.042896 4 3 cbr 210 ------- 0 0.0 3.0 8 8
r 1.043586 0 1 cbr 210 ------- 0 0.0 3.0 11 11
+ 1.043586 1 4 cbr 210 ------- 0 0.0 3.0 11 11
- 1.043586 1 4 cbr 210 ------- 0 0.0 3.0 11 11
r 1.044913 4 3 cbr 210 ------- 0 0.0 3.0 8 8
+ 1.045 0 1 cbr 210 ------- 0 0.0 3.0 12 12
- 1.045 0 1 cbr 210 ------- 0 0.0 3.0 12 12
r 1.046646 1 4 cbr 210 ------- 0 0.0 3.0 9 9
+ 1.046646 4 3 cbr 210 ------- 0 0.0 3.0 9 9
- 1.046646 4 3 cbr 210 ------- 0 0.0 3.0 9 9
r 1.047336 0 1 cbr 210 ------- 0 0.0 3.0 12 12
+ 1.047336 1 4 cbr 210 ------- 0 0.0 3.0 12 12
- 1.047336 1 4 cbr 210 ------- 0 0.0 3.0 12 12
r 1.048663 4 3 cbr 210 ------- 0 0.0 3.0 9 9
+ 1.04875 0 1 cbr 210 ------- 0 0.0 3.0 13 13
- 1.04875 0 1 cbr 210 ------- 0 0.0 3.0 13 13
r 1.050396 1 4 cbr 210 ------- 0 0.0 3.0 10 10
+ 1.050396 4 3 cbr 210 ------- 0 0.0 3.0 10 10
- 1.050396 4 3 cbr 210 ------- 0 0.0 3.0 10 10
r 1.051086 0 1 cbr 210 ------- 0 0.0 3.0 13 13
+ 1.051086 1 4 cbr 210 ------- 0 0.0 3.0 13 13
- 1.051086 1 4 cbr 210 ------- 0 0.0 3.0 13 13
r 1.052413 4 3 cbr 210 ------- 0 0.0 3.0 10 10
+ 1.0525 0 1 cbr 210 ------- 0 0.0 3.0 14 14
- 1.0525 0 1 cbr 210 ------- 0 0.0 3.0 14 14
r 1.054146 1 4 cbr 210 ------- 0 0.0 3.0 11 11
+ 1.054146 4 3 cbr 210 ------- 0 0.0 3.0 11 11
- 1.054146 4 3 cbr 210 ------- 0 0.0 3.0 11 11
r 1.054836 0 1 cbr 210 ------- 0 0.0 3.0 14 14
+ 1.054836 1 4 cbr 210 ------- 0 0.0 3.0 14 14
- 1.054836 1 4 cbr 210 ------- 0 0.0 3.0 14 14
r 1.056163 4 3 cbr 210 ------- 0 0.0 3.0 11 11
+ 1.05625 0 1 cbr 210 ------- 0 0.0 3.0 15 15
- 1.05625 0 1 cbr 210 ------- 0 0.0 3.0 15 15
r 1.057896 1 4 cbr 210 ------- 0 0.0 3.0 12 12
+ 1.057896 4 3 cbr 210 ------- 0 0.0 3.0 12 12
- 1.057896 4 3 cbr 210 ------- 0 0.0 3.0 12 12
r 1.058586 0 1 cbr 210 ------- 0 0.0 3.0 15 15
+ 1.058586 1 4 cbr 210 ------- 0 0.0 3.0 15 15
- 1.058586 1 4 cbr 210 ------- 0 0.0 3.0 15 15
r 1.059913 4 3 cbr 210 ------- 0 0.0 3.0 12 12
+ 1.06 0 1 cbr 210 ------- 0 0.0 3.0 16 16
- 1.06 0 1 cbr 210 ------- 0 0.0 3.0 16 16
r 1.061646 1 4 cbr 210 ------- 0 0.0 3.0 13 13
+ 1.061646 4 3 cbr 210 ------- 0 0.0 3.0 13 13
- 1.061646 4 3 cbr 210 ------- 0 0.0 3.0 13 13
r 1.062336 0 1 cbr 210 ------- 0 0.0 3.0 16 16
+ 1.062336 1 4 cbr 210 ------- 0 0.0 3.0 16 16
- 1.062336 1 4 cbr 210 ------- 0 0.0 3.0 16 16
r 1.063663 4 3 cbr 210 ------- 0 0.0 3.0 13 13
+ 1.06375 0 1 cbr 210 ------- 0 0.0 3.0 17 17
- 1.06375 0 1 cbr 210 ------- 0 0.0 3.0 17 17
r 1.065396 1 4 cbr 210 ------- 0 0.0 3.0 14 14
+ 1.065396 4 3 cbr 210 ------- 0 0.0 3.0 14 14
- 1.065396 4 3 cbr 210 ------- 0 0.0 3.0 14 14
r 1.066086 0 1 cbr 210 ------- 0 0.0 3.0 17 17
+ 1.066086 1 4 cbr 210 ------- 0 0.0 3.0 17 17
- 1.066086 1 4 cbr 210 ------- 0 0.0 3.0 17 17
r 1.067413 4 3 cbr 210 ------- 0 0.0 3.0 14 14
+ 1.0675 0 1 cbr 210 ------- 0 0.0 3.0 18 18
- 1.0675 0 1 cbr 210 ------- 0 0.0 3.0 18 18
r 1.069146 1 4 cbr 210 ------- 0 0.0 3.0 15 15
+ 1.069146 4 3 cbr 210 ------- 0 0.0 3.0 15 15
- 1.069146 4 3 cbr 210 ------- 0 0.0 3.0 15 15
r 1.069836 0 1 cbr 210 ------- 0 0.0 3.0 18 18
+ 1.069836 1 4 cbr 210 ------- 0 0.0 3.0 18 18
- 1.069836 1 4 cbr 210 ------- 0 0.0 3.0 18 18
r 1.071163 4 3 cbr 210 ------- 0 0.0 3.0 15 15
+ 1.07125 0 1 cbr 210 ------- 0 0.0 3.0 19 19
- 1.07125 0 1 cbr 210 ------- 0 0.0 3.0 19 19
r 1.072896 1 4 cbr 210 ------- 0 0.0 3.0 16 16
+ 1.072896 4 3 cbr 210 ------- 0 0.0 3.0 16 16
- 1.072896 4 3 cbr 210 ------- 0 0.0 3.0 16 16
r 1.073586 0 1 cbr 210 ------- 0 0.0 3.0 19 19
+ 1.073586 1 4 cbr 210 ------- 0 0.0 3.0 19 19
- 1.073586 1 4 cbr 210 ------- 0 0.0 3.0 19 19
r 1.074913 4 3 cbr 210 ------- 0 0.0 3.0 16 16
+ 1.075 0 1 cbr 210 ------- 0 0.0 3.0 20 20
- 1.075 0 1 cbr 210 ------- 0 0.0 3.0 20 20
r 1.076646 1 4 cbr 210 ------- 0 0.0 3.0 17 17
+ 1.076646 4 3 cbr 210 ------- 0 0.0 3.0 17 17
- 1.076646 4 3 cbr 210 ------- 0 0.0 3.0 17 17
r 1.077336 0 1 cbr 210 ------- 0 0.0 3.0 20 20
+ 1.077336 1 4 cbr 210 ------- 0 0.0 3.0 20 20
- 1.077336 1 4 cbr 210 ------- 0 0.0 3.0 20 20
r 1.078663 4 3 cbr 210 ------- 0 0.0 3.0 17 17
+ 1.07875 0 1 cbr 210 ------- 0 0.0 3.0 21 21
- 1.07875 0 1 cbr 210 ------- 0 0.0 3.0 21 21
r 1.080396 1 4 cbr 210 ------- 0 0.0 3.0 18 18
+ 1.080396 4 3 cbr 210 ------- 0 0.0 3.0 18 18
- 1.080396 4 3 cbr 210 ------- 0 0.0 3.0 18 18
r 1.081086 0 1 cbr 210 ------- 0 0.0 3.0 21 21
+ 1.081086 1 4 cbr 210 ------- 0 0.0 3.0 21 21
- 1.081086 1 4 cbr 210 ------- 0 0.0 3.0 21 21
r 1.082413 4 3 cbr 210 ------- 0 0.0 3.0 18 18
+ 1.0825 0 1 cbr 210 ------- 0 0.0 3.0 22 22
- 1.0825 0 1 cbr 210 ------- 0 0.0 3.0 22 22
r 1.084146 1 4 cbr 210 ------- 0 0.0 3.0 19 19
+ 1.084146 4 3 cbr 210 ------- 0 0.0 3.0 19 19
- 1.084146 4 3 cbr 210 ------- 0 0.0 3.0 19 19
r 1.084836 0 1 cbr 210 ------- 0 0.0 3.0 22 22
+ 1.084836 1 4 cbr 210 ------- 0 0.0 3.0 22 22
- 1.084836 1 4 cbr 210 ------- 0 0.0 3.0 22 22
r 1.086163 4 3 cbr 210 ------- 0 0.0 3.0 19 19
+ 1.08625 0 1 cbr 210 ------- 0 0.0 3.0 23 23
- 1.08625 0 1 cbr 210 ------- 0 0.0 3.0 23 23
r 1.087896 1 4 cbr 210 ------- 0 0.0 3.0 20 20
+ 1.087896 4 3 cbr 210 ------- 0 0.0 3.0 20 20
- 1.087896 4 3 cbr 210 ------- 0 0.0 3.0 20 20
r 1.088586 0 1 cbr 210 ------- 0 0.0 3.0 23 23
+ 1.088586 1 4 cbr 210 ------- 0 0.0 3.0 23 23
- 1.088586 1 4 cbr 210 ------- 0 0.0 3.0 23 23
r 1.089913 4 3 cbr 210 ------- 0 0.0 3.0 20 20
+ 1.09 0 1 cbr 210 ------- 0 0.0 3.0 24 24
- 1.09 0 1 cbr 210 ------- 0 0.0 3.0 24 24
r 1.091646 1 4 cbr 210 ------- 0 0.0 3.0 21 21
+ 1.091646 4 3 cbr 210 ------- 0 0.0 3.0 21 21
- 1.091646 4 3 cbr 210 ------- 0 0.0 3.0 21 21
r 1.092336 0 1 cbr 210 ------- 0 0.0 3.0 24 24
+ 1.092336 1 4 cbr 210 ------- 0 0.0 3.0 24 24
- 1.092336 1 4 cbr 210 ------- 0 0.0 3.0 24 24
r 1.093663 4 3 cbr 210 ------- 0 0.0 3.0 21 21
+ 1.09375 0 1 cbr 210 ------- 0 0.0 3.0 25 25
- 1.09375 0 1 cbr 210 ------- 0 0.0 3.0 25 25
r 1.095396 1 4 cbr 210 ------- 0 0.0 3.0 22 22
+ 1.095396 4 3 cbr 210 ------- 0 0.0 3.0 22 22
- 1.095396 4 3 cbr 210 ------- 0 0.0 3.0 22 22
r 1.096086 0 1 cbr 210 ------- 0 0.0 3.0 25 25
+ 1.096086 1 4 cbr 210 ------- 0 0.0 3.0 25 25
- 1.096086 1 4 cbr 210 ------- 0 0.0 3.0 25 25
r 1.097413 4 3 cbr 210 ------- 0 0.0 3.0 22 22
+ 1.0975 0 1 cbr 210 ------- 0 0.0 3.0 26 26
- 1.0975 0 1 cbr 210 ------- 0 0.0 3.0 26 26
r 1.099146 1 4 cbr 210 ------- 0 0.0 3.0 23 23
+ 1.099146 4 3 cbr 210 ------- 0 0.0 3.0 23 23
- 1.099146 4 3 cbr 210 ------- 0 0.0 3.0 23 23
r 1.099836 0 1 cbr 210 ------- 0 0.0 3.0 26 26
+ 1.099836 1 4 cbr 210 ------- 0 0.0 3.0 26 26
- 1.099836 1 4 cbr 210 ------- 0 0.0 3.0 26 26
r 1.101163 4 3 cbr 210 ------- 0 0.0 3.0 23 23
+ 1.10125 0 1 cbr 210 ------- 0 0.0 3.0 27 27
- 1.10125 0 1 cbr 210 ------- 0 0.0 3.0 27 27
r 1.102896 1 4 cbr 210 ------- 0 0.0 3.0 24 24
+ 1.102896 4 3 cbr 210 ------- 0 0.0 3.0 24 24
- 1.102896 4 3 cbr 210 ------- 0 0.0 3.0 24 24
r 1.103586 0 1 cbr 210 ------- 0 0.0 3.0 27 27
+ 1.103586 1 4 cbr 210 ------- 0 0.0 3.0 27 27
- 1.103586 1 4 cbr 210 ------- 0 0.0 3.0 27 27
r 1.104913 4 3 cbr 210 ------- 0 0.0 3.0 24 24
+ 1.105 0 1 cbr 210 ------- 0 0.0 3.0 28 28
- 1.105 0 1 cbr 210 ------- 0 0.0 3.0 28 28
r 1.106646 1 4 cbr 210 ------- 0 0.0 3.0 25 25
+ 1.106646 4 3 cbr 210 ------- 0 0.0 3.0 25 25
- 1.106646 4 3 cbr 210 ------- 0 0.0 3.0 25 25
r 1.107336 0 1 cbr 210 ------- 0 0.0 3.0 28 28
+ 1.107336 1 4 cbr 210 ------- 0 0.0 3.0 28 28
- 1.107336 1 4 cbr 210 ------- 0 0.0 3.0 28 28
r 1.108663 4 3 cbr 210 ------- 0 0.0 3.0 25 25
+ 1.10875 0 1 cbr 210 ------- 0 0.0 3.0 29 29
- 1.10875 0 1 cbr 210 ------- 0 0.0 3.0 29 29
r 1.110396 1 4 cbr 210 ------- 0 0.0 3.0 26 26
+ 1.110396 4 3 cbr 210 ------- 0 0.0 3.0 26 26
- 1.110396 4 3 cbr 210 ------- 0 0.0 3.0 26 26
r 1.111086 0 1 cbr 210 ------- 0 0.0 3.0 29 29
+ 1.111086 1 4 cbr 210 ------- 0 0.0 3.0 29 29
- 1.111086 1 4 cbr 210 ------- 0 0.0 3.0 29 29
r 1.112413 4 3 cbr 210 ------- 0 0.0 3.0 26 26
+ 1.1125 0 1 cbr 210 ------- 0 0.0 3.0 30 30
- 1.1125 0 1 cbr 210 ------- 0 0.0 3.0 30 30
r 1.114146 1 4 cbr 210 ------- 0 0.0 3.0 27 27
+ 1.114146 4 3 cbr 210 ------- 0 0.0 3.0 27 27
- 1.114146 4 3 cbr 210 ------- 0 0.0 3.0 27 27
r 1.114836 0 1 cbr 210 ------- 0 0.0 3.0 30 30
+ 1.114836 1 4 cbr 210 ------- 0 0.0 3.0 30 30
- 1.114836 1 4 cbr 210 ------- 0 0.0 3.0 30 30
r 1.116163 4 3 cbr 210 ------- 0 0.0 3.0 27 27
+ 1.11625 0 1 cbr 210 ------- 0 0.0 3.0 31 31
- 1.11625 0 1 cbr 210 ------- 0 0.0 3.0 31 31
r 1.117896 1 4 cbr 210 ------- 0 0.0 3.0 28 28
+ 1.117896 4 3 cbr 210 ------- 0 0.0 3.0 28 28
- 1.117896 4 3 cbr 210 ------- 0 0.0 3.0 28 28
r 1.118586 0 1 cbr 210 ------- 0 0.0 3.0 31 31
+ 1.118586 1 4 cbr 210 ------- 0 0.0 3.0 31 31
- 1.118586 1 4 cbr 210 ------- 0 0.0 3.0 31 31
r 1.119913 4 3 cbr 210 ------- 0 0.0 3.0 28 28
+ 1.12 0 1 cbr 210 ------- 0 0.0 3.0 32 32
- 1.12 0 1 cbr 210 ------- 0 0.0 3.0 32 32
r 1.121646 1 4 cbr 210 ------- 0 0.0 3.0 29 29
+ 1.121646 4 3 cbr 210 ------- 0 0.0 3.0 29 29
- 1.121646 4 3 cbr 210 ------- 0 0.0 3.0 29 29
r 1.122336 0 1 cbr 210 ------- 0 0.0 3.0 32 32
+ 1.122336 1 4 cbr 210 ------- 0 0.0 3.0 32 32
- 1.122336 1 4 cbr 210 ------- 0 0.0 3.0 32 32
r 1.123663 4 3 cbr 210 ------- 0 0.0 3.0 29 29
+ 1.12375 0 1 cbr 210 ------- 0 0.0 3.0 33 33
- 1.12375 0 1 cbr 210 ------- 0 0.0 3.0 33 33
r 1.125396 1 4 cbr 210 ------- 0 0.0 3.0 30 30
+ 1.125396 4 3 cbr 210 ------- 0 0.0 3.0 30 30
- 1.125396 4 3 cbr 210 ------- 0 0.0 3.0 30 30
r 1.126086 0 1 cbr 210 ------- 0 0.0 3.0 33 33
+ 1.126086 1 4 cbr 210 ------- 0 0.0 3.0 33 33
- 1.126086 1 4 cbr 210 ------- 0 0.0 3.0 33 33
r 1.127413 4 3 cbr 210 ------- 0 0.0 3.0 30 30
+ 1.1275 0 1 cbr 210 ------- 0 0.0 3.0 34 34
- 1.1275 0 1 cbr 210 ------- 0 0.0 3.0 34 34
r 1.129146 1 4 cbr 210 ------- 0 0.0 3.0 31 31
+ 1.129146 4 3 cbr 210 ------- 0 0.0 3.0 31 31
- 1.129146 4 3 cbr 210 ------- 0 0.0 3.0 31 31
r 1.129836 0 1 cbr 210 ------- 0 0.0 3.0 34 34
+ 1.129836 1 4 cbr 210 ------- 0 0.0 3.0 34 34
- 1.129836 1 4 cbr 210 ------- 0 0.0 3.0 34 34
r 1.131163 4 3 cbr 210 ------- 0 0.0 3.0 31 31
+ 1.13125 0 1 cbr 210 ------- 0 0.0 3.0 35 35
- 1.13125 0 1 cbr 210 ------- 0 0.0 3.0 35 35
r 1.132896 1 4 cbr 210 ------- 0 0.0 3.0 32 32
+ 1.132896 4 3 cbr 210 ------- 0 0.0 3.0 32 32
- 1.132896 4 3 cbr 210 ------- 0 0.0 3.0 32 32
r 1.133586 0 1 cbr 210 ------- 0 0.0 3.0 35 35
+ 1.133586 1 4 cbr 210 ------- 0 0.0 3.0 35 35
- 1.133586 1 4 cbr 210 ------- 0 0.0 3.0 35 35
r 1.134913 4 3 cbr 210 ------- 0 0.0 3.0 32 32
+ 1.135 0 1 cbr 210 ------- 0 0.0 3.0 36 36
- 1.135 0 1 cbr 210 ------- 0 0.0 3.0 36 36
r 1.136646 1 4 cbr 210 ------- 0 0.0 3.0 33 33
+ 1.136646 4 3 cbr 210 ------- 0 0.0 3.0 33 33
- 1.136646 4 3 cbr 210 ------- 0 0.0 3.0 33 33
r 1.137336 0 1 cbr 210 ------- 0 0.0 3.0 36 36
+ 1.137336 1 4 cbr 210 ------- 0 0.0 3.0 36 36
- 1.137336 1 4 cbr 210 ------- 0 0.0 3.0 36 36
r 1.138663 4 3 cbr 210 ------- 0 0.0 3.0 33 33
+ 1.13875 0 1 cbr 210 ------- 0 0.0 3.0 37 37
- 1.13875 0 1 cbr 210 ------- 0 0.0 3.0 37 37
r 1.140396 1 4 cbr 210 ------- 0 0.0 3.0 34 34
+ 1.140396 4 3 cbr 210 ------- 0 0.0 3.0 34 34
- 1.140396 4 3 cbr 210 ------- 0 0.0 3.0 34 34
r 1.141086 0 1 cbr 210 ------- 0 0.0 3.0 37 37
+ 1.141086 1 4 cbr 210 ------- 0 0.0 3.0 37 37
- 1.141086 1 4 cbr 210 ------- 0 0.0 3.0 37 37
r 1.142413 4 3 cbr 210 ------- 0 0.0 3.0 34 34
+ 1.1425 0 1 cbr 210 ------- 0 0.0 3.0 38 38
- 1.1425 0 1 cbr 210 ------- 0 0.0 3.0 38 38
r 1.144146 1 4 cbr 210 ------- 0 0.0 3.0 35 35
+ 1.144146 4 3 cbr 210 ------- 0 0.0 3.0 35 35
- 1.144146 4 3 cbr 210 ------- 0 0.0 3.0 35 35
r 1.144836 0 1 cbr 210 ------- 0 0.0 3.0 38 38
+ 1.144836 1 4 cbr 210 ------- 0 0.0 3.0 38 38
- 1.144836 1 4 cbr 210 ------- 0 0.0 3.0 38 38
r 1.146163 4 3 cbr 210 ------- 0 0.0 3.0 35 35
+ 1.14625 0 1 cbr 210 ------- 0 0.0 3.0 39 39
- 1.14625 0 1 cbr 210 ------- 0 0.0 3.0 39 39
r 1.147896 1 4 cbr 210 ------- 0 0.0 3.0 36 36
+ 1.147896 4 3 cbr 210 ------- 0 0.0 3.0 36 36
- 1.147896 4 3 cbr 210 ------- 0 0.0 3.0 36 36
r 1.148586 0 1 cbr 210 ------- 0 0.0 3.0 39 39
+ 1.148586 1 4 cbr 210 ------- 0 0.0 3.0 39 39
- 1.148586 1 4 cbr 210 ------- 0 0.0 3.0 39 39
r 1.149913 4 3 cbr 210 ------- 0 0.0 3.0 36 36
+ 1.15 0 1 cbr 210 ------- 0 0.0 3.0 40 40
- 1.15 0 1 cbr 210 ------- 0 0.0 3.0 40 40
r 1.151646 1 4 cbr 210 ------- 0 0.0 3.0 37 37
+ 1.151646 4 3 cbr 210 ------- 0 0.0 3.0 37 37
- 1.151646 4 3 cbr 210 ------- 0 0.0 3.0 37 37
r 1.152336 0 1 cbr 210 ------- 0 0.0 3.0 40 40
+ 1.152336 1 4 cbr 210 ------- 0 0.0 3.0 40 40
- 1.152336 1 4 cbr 210 ------- 0 0.0 3.0 40 40
r 1.153663 4 3 cbr 210 ------- 0 0.0 3.0 37 37
+ 1.15375 0 1 cbr 210 ------- 0 0.0 3.0 41 41
- 1.15375 0 1 cbr 210 ------- 0 0.0 3.0 41 41
r 1.155396 1 4 cbr 210 ------- 0 0.0 3.0 38 38
+ 1.155396 4 3 cbr 210 ------- 0 0.0 3.0 38 38
- 1.155396 4 3 cbr 210 ------- 0 0.0 3.0 38 38
r 1.156086 0 1 cbr 210 ------- 0 0.0 3.0 41 41
+ 1.156086 1 4 cbr 210 ------- 0 0.0 3.0 41 41
- 1.156086 1 4 cbr 210 ------- 0 0.0 3.0 41 41
r 1.157413 4 3 cbr 210 ------- 0 0.0 3.0 38 38
+ 1.1575 0 1 cbr 210 ------- 0 0.0 3.0 42 42
- 1.1575 0 1 cbr 210 ------- 0 0.0 3.0 42 42
r 1.159146 1 4 cbr 210 ------- 0 0.0 3.0 39 39
+ 1.159146 4 3 cbr 210 ------- 0 0.0 3.0 39 39
- 1.159146 4 3 cbr 210 ------- 0 0.0 3.0 39 39
r 1.159836 0 1 cbr 210 ------- 0 0.0 3.0 42 42
+ 1.159836 1 4 cbr 210 ------- 0 0.0 3.0 42 42
- 1.159836 1 4 cbr 210 ------- 0 0.0 3.0 42 42
r 1.161163 4 3 cbr 210 ------- 0 0.0 3.0 39 39
+ 1.16125 0 1 cbr 210 ------- 0 0.0 3.0 43 43
- 1.16125 0 1 cbr 210 ------- 0 0.0 3.0 43 43
r 1.162896 1 4 cbr 210 ------- 0 0.0 3.0 40 40
+ 1.162896 4 3 cbr 210 ------- 0 0.0 3.0 40 40
- 1.162896 4 3 cbr 210 ------- 0 0.0 3.0 40 40
r 1.163586 0 1 cbr 210 ------- 0 0.0 3.0 43 43
+ 1.163586 1 4 cbr 210 ------- 0 0.0 3.0 43 43
- 1.163586 1 4 cbr 210 ------- 0 0.0 3.0 43 43
r 1.164913 4 3 cbr 210 ------- 0 0.0 3.0 40 40
+ 1.165 0 1 cbr 210 ------- 0 0.0 3.0 44 44
- 1.165 0 1 cbr 210 ------- 0 0.0 3.0 44 44
r 1.166646 1 4 cbr 210 ------- 0 0.0 3.0 41 41
+ 1.166646 4 3 cbr 210 ------- 0 0.0 3.0 41 41
- 1.166646 4 3 cbr 210 ------- 0 0.0 3.0 41 41
r 1.167336 0 1 cbr 210 ------- 0 0.0 3.0 44 44
+ 1.167336 1 4 cbr 210 ------- 0 0.0 3.0 44 44
- 1.167336 1 4 cbr 210 ------- 0 0.0 3.0 44 44
r 1.168663 4 3 cbr 210 ------- 0 0.0 3.0 41 41
+ 1.16875 0 1 cbr 210 ------- 0 0.0 3.0 45 45
- 1.16875 0 1 cbr 210 ------- 0 0.0 3.0 45 45
r 1.170396 1 4 cbr 210 ------- 0 0.0 3.0 42 42
+ 1.170396 4 3 cbr 210 ------- 0 0.0 3.0 42 42
- 1.170396 4 3 cbr 210 ------- 0 0.0 3.0 42 42
r 1.171086 0 1 cbr 210 ------- 0 0.0 3.0 45 45
+ 1.171086 1 4 cbr 210 ------- 0 0.0 3.0 45 45
- 1.171086 1 4 cbr 210 ------- 0 0.0 3.0 45 45
r 1.172413 4 3 cbr 210 ------- 0 0.0 3.0 42 42
+ 1.1725 0 1 cbr 210 ------- 0 0.0 3.0 46 46
- 1.1725 0 1 cbr 210 ------- 0 0.0 3.0 46 46
r 1.174146 1 4 cbr 210 ------- 0 0.0 3.0 43 43
+ 1.174146 4 3 cbr 210 ------- 0 0.0 3.0 43 43
- 1.174146 4 3 cbr 210 ------- 0 0.0 3.0 43 43
r 1.174836 0 1 cbr 210 ------- 0 0.0 3.0 46 46
+ 1.174836 1 4 cbr 210 ------- 0 0.0 3.0 46 46
- 1.174836 1 4 cbr 210 ------- 0 0.0 3.0 46 46
r 1.176163 4 3 cbr 210 ------- 0 0.0 3.0 43 43
+ 1.17625 0 1 cbr 210 ------- 0 0.0 3.0 47 47
- 1.17625 0 1 cbr 210 ------- 0 0.0 3.0 47 47
r 1.177896 1 4 cbr 210 ------- 0 0.0 3.0 44 44
+ 1.177896 4 3 cbr 210 ------- 0 0.0 3.0 44 44
- 1.177896 4 3 cbr 210 ------- 0 0.0 3.0 44 44
r 1.178586 0 1 cbr 210 ------- 0 0.0 3.0 47 47
+ 1.178586 1 4 cbr 210 ------- 0 0.0 3.0 47 47
- 1.178586 1 4 cbr 210 ------- 0 0.0 3.0 47 47
r 1.179913 4 3 cbr 210 ------- 0 0.0 3.0 44 44
+ 1.18 0 1 cbr 210 ------- 0 0.0 3.0 48 48
- 1.18 0 1 cbr 210 ------- 0 0.0 3.0 48 48
r 1.181646 1 4 cbr 210 ------- 0 0.0 3.0 45 45
+ 1.181646 4 3 cbr 210 ------- 0 0.0 3.0 45 45
- 1.181646 4 3 cbr 210 ------- 0 0.0 3.0 45 45
r 1.182336 0 1 cbr 210 ------- 0 0.0 3.0 48 48
+ 1.182336 1 4 cbr 210 ------- 0 0.0 3.0 48 48
- 1.182336 1 4 cbr 210 ------- 0 0.0 3.0 48 48
r 1.183663 4 3 cbr 210 ------- 0 0.0 3.0 45 45
+ 1.18375 0 1 cbr 210 ------- 0 0.0 3.0 49 49
- 1.18375 0 1 cbr 210 ------- 0 0.0 3.0 49 49
r 1.185396 1 4 cbr 210 ------- 0 0.0 3.0 46 46
+ 1.185396 4 3 cbr 210 ------- 0 0.0 3.0 46 46
- 1.185396 4 3 cbr 210 ------- 0 0.0 3.0 46 46
r 1.186086 0 1 cbr 210 ------- 0 0.0 3.0 49 49
+ 1.186086 1 4 cbr 210 ------- 0 0.0 3.0 49 49
- 1.186086 1 4 cbr 210 ------- 0 0.0 3.0 49 49
r 1.187413 4 3 cbr 210 ------- 0 0.0 3.0 46 46
+ 1.1875 0 1 cbr 210 ------- 0 0.0 3.0 50 50
- 1.1875 0 1 cbr 210 ------- 0 0.0 3.0 50 50
r 1.189146 1 4 cbr 210 ------- 0 0.0 3.0 47 47
+ 1.189146 4 3 cbr 210 ------- 0 0.0 3.0 47 47
- 1.189146 4 3 cbr 210 ------- 0 0.0 3.0 47 47
r 1.189836 0 1 cbr 210 ------- 0 0.0 3.0 50 50
+ 1.189836 1 4 cbr 210 ------- 0 0.0 3.0 50 50
- 1.189836 1 4 cbr 210 ------- 0 0.0 3.0 50 50
r 1.191163 4 3 cbr 210 ------- 0 0.0 3.0 47 47
+ 1.19125 0 1 cbr 210 ------- 0 0.0 3.0 51 51
- 1.19125 0 1 cbr 210 ------- 0 0.0 3.0 51 51
r 1.192896 1 4 cbr 210 ------- 0 0.0 3.0 48 48
+ 1.192896 4 3 cbr 210 ------- 0 0.0 3.0 48 48
- 1.192896 4 3 cbr 210 ------- 0 0.0 3.0 48 48
r 1.193586 0 1 cbr 210 ------- 0 0.0 3.0 51 51
+ 1.193586 1 4 cbr 210 ------- 0 0.0 3.0 51 51
- 1.193586 1 4 cbr 210 ------- 0 0.0 3.0 51 51
r 1.194913 4 3 cbr 210 ------- 0 0.0 3.0 48 48
+ 1.195 0 1 cbr 210 ------- 0 0.0 3.0 52 52
- 1.195 0 1 cbr 210 ------- 0 0.0 3.0 52 52
r 1.196646 1 4 cbr 210 ------- 0 0.0 3.0 49 49
+ 1.196646 4 3 cbr 210 ------- 0 0.0 3.0 49 49
- 1.196646 4 3 cbr 210 ------- 0 0.0 3.0 49 49
r 1.197336 0 1 cbr 210 ------- 0 0.0 3.0 52 52
+ 1.197336 1 4 cbr 210 ------- 0 0.0 3.0 52 52
- 1.197336 1 4 cbr 210 ------- 0 0.0 3.0 52 52
r 1.198663 4 3 cbr 210 ------- 0 0.0 3.0 49 49
+ 1.19875 0 1 cbr 210 ------- 0 0.0 3.0 53 53
- 1.19875 0 1 cbr 210 ------- 0 0.0 3.0 53 53
r 1.200396 1 4 cbr 210 ------- 0 0.0 3.0 50 50
+ 1.200396 4 3 cbr 210 ------- 0 0.0 3.0 50 50
- 1.200396 4 3 cbr 210 ------- 0 0.0 3.0 50 50
r 1.201086 0 1 cbr 210 ------- 0 0.0 3.0 53 53
+ 1.201086 1 4 cbr 210 ------- 0 0.0 3.0 53 53
- 1.201086 1 4 cbr 210 ------- 0 0.0 3.0 53 53
r 1.202413 4 3 cbr 210 ------- 0 0.0 3.0 50 50
+ 1.2025 0 1 cbr 210 ------- 0 0.0 3.0 54 54
- 1.2025 0 1 cbr 210 ------- 0 0.0 3.0 54 54
r 1.204146 1 4 cbr 210 ------- 0 0.0 3.0 51 51
+ 1.204146 4 3 cbr 210 ------- 0 0.0 3.0 51 51
- 1.204146 4 3 cbr 210 ------- 0 0.0 3.0 51 51
r 1.204836 0 1 cbr 210 ------- 0 0.0 3.0 54 54
+ 1.204836 1 4 cbr 210 ------- 0 0.0 3.0 54 54
- 1.204836 1 4 cbr 210 ------- 0 0.0 3.0 54 54
r 1.206163 4 3 cbr 210 ------- 0 0.0 3.0 51 51
+ 1.20625 0 1 cbr 210 ------- 0 0.0 3.0 55 55
- 1.20625 0 1 cbr 210 ------- 0 0.0 3.0 55 55
r 1.207896 1 4 cbr 210 ------- 0 0.0 3.0 52 52
+ 1.207896 4 3 cbr 210 ------- 0 0.0 3.0 52 52
- 1.207896 4 3 cbr 210 ------- 0 0.0 3.0 52 52
r 1.208586 0 1 cbr 210 ------- 0 0.0 3.0 55 55
+ 1.208586 1 4 cbr 210 ------- 0 0.0 3.0 55 55
- 1.208586 1 4 cbr 210 ------- 0 0.0 3.0 55 55
r 1.209913 4 3 cbr 210 ------- 0 0.0 3.0 52 52
+ 1.21 0 1 cbr 210 ------- 0 0.0 3.0 56 56
- 1.21 0 1 cbr 210 ------- 0 0.0 3.0 56 56
r 1.211646 1 4 cbr 210 ------- 0 0.0 3.0 53 53
+ 1.211646 4 3 cbr 210 ------- 0 0.0 3.0 53 53
- 1.211646 4 3 cbr 210 ------- 0 0.0 3.0 53 53
r 1.212336 0 1 cbr 210 ------- 0 0.0 3.0 56 56
+ 1.212336 1 4 cbr 210 ------- 0 0.0 3.0 56 56
- 1.212336 1 4 cbr 210 ------- 0 0.0 3.0 56 56
r 1.213663 4 3 cbr 210 ------- 0 0.0 3.0 53 53
+ 1.21375 0 1 cbr 210 ------- 0 0.0 3.0 57 57
- 1.21375 0 1 cbr 210 ------- 0 0.0 3.0 57 57
r 1.215396 1 4 cbr 210 ------- 0 0.0 3.0 54 54
+ 1.215396 4 3 cbr 210 ------- 0 0.0 3.0 54 54
- 1.215396 4 3 cbr 210 ------- 0 0.0 3.0 54 54
r 1.216086 0 1 cbr 210 ------- 0 0.0 3.0 57 57
+ 1.216086 1 4 cbr 210 ------- 0 0.0 3.0 57 57
- 1.216086 1 4 cbr 210 ------- 0 0.0 3.0 57 57
r 1.217413 4 3 cbr 210 ------- 0 0.0 3.0 54 54
+ 1.2175 0 1 cbr 210 ------- 0 0.0 3.0 58 58
- 1.2175 0 1 cbr 210 ------- 0 0.0 3.0 58 58
r 1.219146 1 4 cbr 210 ------- 0 0.0 3.0 55 55
+ 1.219146 4 3 cbr 210 ------- 0 0.0 3.0 55 55
- 1.219146 4 3 cbr 210 ------- 0 0.0 3.0 55 55
r 1.219836 0 1 cbr 210 ------- 0 0.0 3.0 58 58
+ 1.219836 1 4 cbr 210 ------- 0 0.0 3.0 58 58
- 1.219836 1 4 cbr 210 ------- 0 0.0 3.0 58 58
r 1.221163 4 3 cbr 210 ------- 0 0.0 3.0 55 55
+ 1.22125 0 1 cbr 210 ------- 0 0.0 3.0 59 59
- 1.22125 0 1 cbr 210 ------- 0 0.0 3.0 59 59
r 1.222896 1 4 cbr 210 ------- 0 0.0 3.0 56 56
+ 1.222896 4 3 cbr 210 ------- 0 0.0 3.0 56 56
- 1.222896 4 3 cbr 210 ------- 0 0.0 3.0 56 56
r 1.223586 0 1 cbr 210 ------- 0 0.0 3.0 59 59
+ 1.223586 1 4 cbr 210 ------- 0 0.0 3.0 59 59
- 1.223586 1 4 cbr 210 ------- 0 0.0 3.0 59 59
r 1.224913 4 3 cbr 210 ------- 0 0.0 3.0 56 56
+ 1.225 0 1 cbr 210 ------- 0 0.0 3.0 60 60
- 1.225 0 1 cbr 210 ------- 0 0.0 3.0 60 60
r 1.226646 1 4 cbr 210 ------- 0 0.0 3.0 57 57
+ 1.226646 4 3 cbr 210 ------- 0 0.0 3.0 57 57
- 1.226646 4 3 cbr 210 ------- 0 0.0 3.0 57 57
r 1.227336 0 1 cbr 210 ------- 0 0.0 3.0 60 60
+ 1.227336 1 4 cbr 210 ------- 0 0.0 3.0 60 60
- 1.227336 1 4 cbr 210 ------- 0 0.0 3.0 60 60
r 1.228663 4 3 cbr 210 ------- 0 0.0 3.0 57 57
+ 1.22875 0 1 cbr 210 ------- 0 0.0 3.0 61 61
- 1.22875 0 1 cbr 210 ------- 0 0.0 3.0 61 61
r 1.230396 1 4 cbr 210 ------- 0 0.0 3.0 58 58
+ 1.230396 4 3 cbr 210 ------- 0 0.0 3.0 58 58
- 1.230396 4 3 cbr 210 ------- 0 0.0 3.0 58 58
r 1.231086 0 1 cbr 210 ------- 0 0.0 3.0 61 61
+ 1.231086 1 4 cbr 210 ------- 0 0.0 3.0 61 61
- 1.231086 1 4 cbr 210 ------- 0 0.0 3.0 61 61
r 1.232413 4 3 cbr 210 ------- 0 0.0 3.0 58 58
+ 1.2325 0 1 cbr 210 ------- 0 0.0 3.0 62 62
- 1.2325 0 1 cbr 210 ------- 0 0.0 3.0 62 62
r 1.234146 1 4 cbr 210 ------- 0 0.0 3.0 59 59
+ 1.234146 4 3 cbr 210 ------- 0 0.0 3.0 59 59
- 1.234146 4 3 cbr 210 ------- 0 0.0 3.0 59 59
r 1.234836 0 1 cbr 210 ------- 0 0.0 3.0 62 62
+ 1.234836 1 4 cbr 210 ------- 0 0.0 3.0 62 62
- 1.234836 1 4 cbr 210 ------- 0 0.0 3.0 62 62
r 1.236163 4 3 cbr 210 ------- 0 0.0 3.0 59 59
+ 1.23625 0 1 cbr 210 ------- 0 0.0 3.0 63 63
- 1.23625 0 1 cbr 210 ------- 0 0.0 3.0 63 63
r 1.237896 1 4 cbr 210 ------- 0 0.0 3.0 60 60
+ 1.237896 4 3 cbr 210 ------- 0 0.0 3.0 60 60
- 1.237896 4 3 cbr 210 ------- 0 0.0 3.0 60 60
r 1.238586 0 1 cbr 210 ------- 0 0.0 3.0 63 63
+ 1.238586 1 4 cbr 210 ------- 0 0.0 3.0 63 63
- 1.238586 1 4 cbr 210 ------- 0 0.0 3.0 63 63
r 1.239913 4 3 cbr 210 ------- 0 0.0 3.0 60 60
+ 1.24 0 1 cbr 210 ------- 0 0.0 3.0 64 64
- 1.24 0 1 cbr 210 ------- 0 0.0 3.0 64 64
r 1.241646 1 4 cbr 210 ------- 0 0.0 3.0 61 61
+ 1.241646 4 3 cbr 210 ------- 0 0.0 3.0 61 61
- 1.241646 4 3 cbr 210 ------- 0 0.0 3.0 61 61
r 1.242336 0 1 cbr 210 ------- 0 0.0 3.0 64 64
+ 1.242336 1 4 cbr 210 ------- 0 0.0 3.0 64 64
- 1.242336 1 4 cbr 210 ------- 0 0.0 3.0 64 64
r 1.243663 4 3 cbr 210 ------- 0 0.0 3.0 61 61
+ 1.24375 0 1 cbr 210 ------- 0 0.0 3.0 65 65
- 1.24375 0 1 cbr 210 ------- 0 0.0 3.0 65 65
r 1.245396 1 4 cbr 210 ------- 0 0.0 3.0 62 62
+ 1.245396 4 3 cbr 210 ------- 0 0.0 3.0 62 62
- 1.245396 4 3 cbr 210 ------- 0 0.0 3.0 62 62
r 1.246086 0 1 cbr 210 ------- 0 0.0 3.0 65 65
+ 1.246086 1 4 cbr 210 ------- 0 0.0 3.0 65 65
- 1.246086 1 4 cbr 210 ------- 0 0.0 3.0 65 65
r 1.247413 4 3 cbr 210 ------- 0 0.0 3.0 62 62
+ 1.2475 0 1 cbr 210 ------- 0 0.0 3.0 66 66
- 1.2475 0 1 cbr 210 ------- 0 0.0 3.0 66 66
r 1.249146 1 4 cbr 210 ------- 0 0.0 3.0 63 63
+ 1.249146 4 3 cbr 210 ------- 0 0.0 3.0 63 63
- 1.249146 4 3 cbr 210 ------- 0 0.0 3.0 63 63
r 1.249836 0 1 cbr 210 ------- 0 0.0 3.0 66 66
+ 1.249836 1 4 cbr 210 ------- 0 0.0 3.0 66 66
- 1.249836 1 4 cbr 210 ------- 0 0.0 3.0 66 66
r 1.251163 4 3 cbr 210 ------- 0 0.0 3.0 63 63
+ 1.25125 0 1 cbr 210 ------- 0 0.0 3.0 67 67
- 1.25125 0 1 cbr 210 ------- 0 0.0 3.0 67 67
r 1.252896 1 4 cbr 210 ------- 0 0.0 3.0 64 64
+ 1.252896 4 3 cbr 210 ------- 0 0.0 3.0 64 64
- 1.252896 4 3 cbr 210 ------- 0 0.0 3.0 64 64
r 1.253586 0 1 cbr 210 ------- 0 0.0 3.0 67 67
+ 1.253586 1 4 cbr 210 ------- 0 0.0 3.0 67 67
- 1.253586 1 4 cbr 210 ------- 0 0.0 3.0 67 67
r 1.254913 4 3 cbr 210 ------- 0 0.0 3.0 64 64
+ 1.255 0 1 cbr 210 ------- 0 0.0 3.0 68 68
- 1.255 0 1 cbr 210 ------- 0 0.0 3.0 68 68
r 1.256646 1 4 cbr 210 ------- 0 0.0 3.0 65 65
+ 1.256646 4 3 cbr 210 ------- 0 0.0 3.0 65 65
- 1.256646 4 3 cbr 210 ------- 0 0.0 3.0 65 65
r 1.257336 0 1 cbr 210 ------- 0 0.0 3.0 68 68
+ 1.257336 1 4 cbr 210 ------- 0 0.0 3.0 68 68
- 1.257336 1 4 cbr 210 ------- 0 0.0 3.0 68 68
r 1.258663 4 3 cbr 210 ------- 0 0.0 3.0 65 65
+ 1.25875 0 1 cbr 210 ------- 0 0.0 3.0 69 69
- 1.25875 0 1 cbr 210 ------- 0 0.0 3.0 69 69
r 1.260396 1 4 cbr 210 ------- 0 0.0 3.0 66 66
+ 1.260396 4 3 cbr 210 ------- 0 0.0 3.0 66 66
- 1.260396 4 3 cbr 210 ------- 0 0.0 3.0 66 66
r 1.261086 0 1 cbr 210 ------- 0 0.0 3.0 69 69
+ 1.261086 1 4 cbr 210 ------- 0 0.0 3.0 69 69
- 1.261086 1 4 cbr 210 ------- 0 0.0 3.0 69 69
r 1.262413 4 3 cbr 210 ------- 0 0.0 3.0 66 66
+ 1.2625 0 1 cbr 210 ------- 0 0.0 3.0 70 70
- 1.2625 0 1 cbr 210 ------- 0 0.0 3.0 70 70
r 1.264146 1 4 cbr 210 ------- 0 0.0 3.0 67 67
+ 1.264146 4 3 cbr 210 ------- 0 0.0 3.0 67 67
- 1.264146 4 3 cbr 210 ------- 0 0.0 3.0 67 67
r 1.264836 0 1 cbr 210 ------- 0 0.0 3.0 70 70
+ 1.264836 1 4 cbr 210 ------- 0 0.0 3.0 70 70
- 1.264836 1 4 cbr 210 ------- 0 0.0 3.0 70 70
r 1.266163 4 3 cbr 210 ------- 0 0.0 3.0 67 67
+ 1.26625 0 1 cbr 210 ------- 0 0.0 3.0 71 71
- 1.26625 0 1 cbr 210 ------- 0 0.0 3.0 71 71
r 1.267896 1 4 cbr 210 ------- 0 0.0 3.0 68 68
+ 1.267896 4 3 cbr 210 ------- 0 0.0 3.0 68 68
- 1.267896 4 3 cbr 210 ------- 0 0.0 3.0 68 68
r 1.268586 0 1 cbr 210 ------- 0 0.0 3.0 71 71
+ 1.268586 1 4 cbr 210 ------- 0 0.0 3.0 71 71
- 1.268586 1 4 cbr 210 ------- 0 0.0 3.0 71 71
r 1.269913 4 3 cbr 210 ------- 0 0.0 3.0 68 68
+ 1.27 0 1 cbr 210 ------- 0 0.0 3.0 72 72
- 1.27 0 1 cbr 210 ------- 0 0.0 3.0 72 72
r 1.271646 1 4 cbr 210 ------- 0 0.0 3.0 69 69
+ 1.271646 4 3 cbr 210 ------- 0 0.0 3.0 69 69
- 1.271646 4 3 cbr 210 ------- 0 0.0 3.0 69 69
r 1.272336 0 1 cbr 210 ------- 0 0.0 3.0 72 72
+ 1.272336 1 4 cbr 210 ------- 0 0.0 3.0 72 72
- 1.272336 1 4 cbr 210 ------- 0 0.0 3.0 72 72
r 1.273663 4 3 cbr 210 ------- 0 0.0 3.0 69 69
+ 1.27375 0 1 cbr 210 ------- 0 0.0 3.0 73 73
- 1.27375 0 1 cbr 210 ------- 0 0.0 3.0 73 73
r 1.275396 1 4 cbr 210 ------- 0 0.0 3.0 70 70